
Running Job 1 of 1 GHSLG_opt_b97m.in
qchem GHSLG_opt_b97m.in_14043.0 /scr/c295_krishna/137266/qchem14043/ 1
/usr/software/qchem_511/exe/qcprog.exe_s GHSLG_opt_b97m.in_14043.0 /scr/c295_krishna/137266/qchem14043/
Check license passed

                  Welcome to Q-Chem
     A Quantum Leap Into The Future Of Chemistry


 Q-Chem 5.1, Q-Chem, Inc., Pleasanton, CA (2018)

 Yihan Shao,  Zhengting Gan,  E. Epifanovsky,  A. T. B. Gilbert,  M. Wormit,  
 J. Kussmann,  A. W. Lange,  A. Behn,  Jia Deng,  Xintian Feng,  D. Ghosh,  
 M. Goldey,  P. R. Horn,  L. D. Jacobson,  I. Kaliman,  T. Kus,  A. Landau,  
 Jie Liu,  E. I. Proynov,  R. M. Richard,  R. P. Steele,  E. J. Sundstrom,  
 H. L. Woodcock III,  P. M. Zimmerman,  D. Zuev,  B. Albrecht,  E. Alguire,  
 S. A. Baeppler,  D. Barton,  Z. Benda,  Y. A. Bernard,  E. J. Berquist,  
 K. B. Bravaya,  H. Burton,  D. Casanova,  Chun-Min Chang,  Yunqing Chen,  
 A. Chien,  K. D. Closser,  M. P. Coons,  S. Coriani,  S. Dasgupta,  
 A. L. Dempwolff,  M. Diedenhofen,  Hainam Do,  R. G. Edgar,  Po-Tung Fang,  
 S. Faraji,  S. Fatehi,  Qingguo Feng,  K. D. Fenk,  J. Fosso-Tande,  
 Qinghui Ge,  A. Ghysels,  G. Gidofalvi,  J. Gomes,  J. Gonthier,  A. Gunina,  
 D. Hait,  M. W. D. Hanson-Heine,  P. H. P. Harbach,  A. W. Hauser,  
 J. E. Herr,  E. G. Hohenstein,  Z. C. Holden,  Kerwin Hui,  B. C. Huynh,  
 T.-C. Jagau,  Hyunjun Ji,  B. Kaduk,  K. Khistyaev,  Jaehoon Kim,  
 P. Klunzinger,  K. Koh,  D. Kosenkov,  L. Koulias,  T. Kowalczyk,  
 C. M. Krauter,  A. Kunitsa,  Ka Un Lao,  A. Laurent,  K. V. Lawler,  
 Joonho Lee,  D. Lefrancois,  S. Lehtola,  D. S. Levine,  Yi-Pei Li,  
 You-Sheng Lin,  Fenglai Liu,  E. Livshits,  A. Luenser,  P. Manohar,  
 E. Mansoor,  S. F. Manzer,  Shan-Ping Mao,  Yuezhi Mao,  N. Mardirossian,  
 A. V. Marenich,  T. Markovich,  L. A. Martinez-Martinez,  S. A. Maurer,  
 N. J. Mayhall,  S. C. McKenzie,  J.-M. Mewes,  A. F. Morrison,  
 J. W. Mullinax,  K. Nanda,  T. S. Nguyen-Beck,  R. Olivares-Amaya,  
 J. A. Parkhill,  T. M. Perrine,  F. Plasser,  P. Pokhilko,  S. Prager,  
 A. Prociuk,  E. Ramos,  D. R. Rehn,  F. Rob,  M. Schneider,  N. Sergueev,  
 S. M. Sharada,  S. Sharma,  D. W. Small,  T. Stauch,  T. Stein,  
 Yu-Chuan Su,  A. J. W. Thom,  A. Tkatchenko,  T. Tsuchimochi,  N. M. Tubman,  
 L. Vogt,  M. L. Vidal,  O. Vydrov,  M. A. Watson,  J. Wenzel,  
 M. de Wergifosse,  T. A. Wesolowski,  A. White,  J. Witte,  A. Yamada,  
 Jun Yang,  K. Yao,  S. Yeganeh,  S. R. Yost,  Zhi-Qiang You,  A. Zech,  
 Igor Ying Zhang,  Xing Zhang,  Yan Zhao,  Ying Zhu,  B. R. Brooks,  
 G. K. L. Chan,  C. J. Cramer,  M. S. Gordon,  W. J. Hehre,  A. Klamt,  
 M. W. Schmidt,  C. D. Sherrill,  D. G. Truhlar,  A. Aspuru-Guzik,  R. Baer,  
 A. T. Bell,  N. A. Besley,  Jeng-Da Chai,  A. E. DePrince, III,  
 R. A. DiStasio Jr.,  A. Dreuw,  B. D. Dunietz,  T. R. Furlani,  
 Chao-Ping Hsu,  Yousung Jung,  Jing Kong,  D. S. Lambrecht,  WanZhen Liang,  
 C. Ochsenfeld,  V. A. Rassolov,  L. V. Slipchenko,  J. E. Subotnik,  
 T. Van Voorhis,  J. M. Herbert,  A. I. Krylov,  P. M. W. Gill,  M. Head-Gordon

 Contributors to earlier versions of Q-Chem not listed above: 
 R. D. Adamson,  B. Austin,  J. Baker,  G. J. O. Beran,  K. Brandhorst,  
 S. T. Brown,  E. F. C. Byrd,  A. K. Chakraborty,  C.-L. Cheng,  
 Siu Hung Chien,  D. M. Chipman,  D. L. Crittenden,  H. Dachsel,  
 R. J. Doerksen,  A. D. Dutoi,  L. Fusti-Molnar,  W. A. Goddard III,  
 A. Golubeva-Zadorozhnaya,  S. R. Gwaltney,  G. Hawkins,  A. Heyden,  
 S. Hirata,  G. Kedziora,  F. J. Keil,  C. Kelley,  Jihan Kim,  R. A. King,  
 R. Z. Khaliullin,  P. P. Korambath,  W. Kurlancheek,  A. M. Lee,  M. S. Lee,  
 S. V. Levchenko,  Ching Yeh Lin,  D. Liotard,  R. C. Lochan,  I. Lotan,  
 P. E. Maslen,  N. Nair,  D. P. O'Neill,  D. Neuhauser,  E. Neuscamman,  
 C. M. Oana,  R. Olson,  B. Peters,  R. Peverati,  P. A. Pieniazek,  
 Y. M. Rhee,  J. Ritchie,  M. A. Rohrdanz,  E. Rosta,  N. J. Russ,  
 H. F. Schaefer III,  N. E. Schultz,  N. Shenvi,  A. C. Simmonett,  A. Sodt,  
 D. Stuck,  K. S. Thanthiriwatte,  V. Vanovschi,  Tao Wang,  A. Warshel,  
 C. F. Williams,  Q. Wu,  X. Xu,  W. Zhang

 Please cite Q-Chem as follows:
 Y. Shao et al., Mol. Phys. 113, 184-215 (2015)
 DOI: 10.1080/00268976.2014.952696

 Q-Chem 5.1.1 for Intel X86 EM64T Linux

 Parts of Q-Chem use Armadillo 8.300.2 (Tropical Shenanigans).
 http://arma.sourceforge.net/

 Q-Chem begins on Thu Nov  1 12:18:36 2018  

Host: cub-0-3.local
0

     Scratch files written to /scr/c295_krishna/137266/qchem14043//
 Aug318 |scratch|qcdevops|jenkins|workspace|build_RNUM -1
Processing $rem in /usr/software/qchem_511/config/preferences.
 MEM_TOTAL  2000 
Input Ideriv = 2
Curr. Ideriv = -1
Max.  Ideriv = 2
Input Ideriv = 1
Curr. Ideriv = 2
Max.  Ideriv = 1

Checking the input file for inconsistencies... 	...done.

--------------------------------------------------------------
User input:
--------------------------------------------------------------
$comment
GHSLG peptide geom opt with no constraints.
$end

$molecule
0  1
N          0.09593        0.14597       -0.62693
C          1.50530       -0.14500       -0.37715
C          1.87802        0.09351        1.06605
O          1.03533        0.49789        1.85563
H          1.70152       -1.21174       -0.61914
H          2.13978        0.49097       -1.03300
H         -0.07333        1.16843       -0.48614
H         -0.11514       -0.07575       -1.62657
N          3.15971       -0.13504        1.47198
C          3.61308        0.05215        2.85467
C          5.14256       -0.06393        2.95434
O          5.78769       -0.41200        1.97437
C          2.90701       -0.99603        3.76376
H          3.25296       -2.01195        3.47278
H          1.81027       -0.96494        3.61571
C          3.11960       -0.78218        5.23272
N          2.74263        0.31590        5.90812
C          3.11735        0.09959        7.18198
H          2.95646        0.80545        7.98600
N          3.71722       -1.09870        7.34323
C          3.71713       -1.65557        6.11574
H          4.12857       -2.62911        5.88503
H          2.26191        1.16197        5.52960
H          3.82550       -0.43461        0.74458
H          3.33838        1.08573        3.16062
N          5.79679        0.21029        4.12199
C          7.24818        0.07579        4.26224
C          7.67852        0.07542        5.73050
O          6.86849        0.34559        6.60656
H          7.53347       -0.92325        3.86349
C          7.94957        1.20197        3.46697
H          7.62033        1.18287        2.40687
H          7.66194        2.18076        3.91419
O          9.34164        1.05670        3.49447
H          9.71397        1.86062        3.04748
H          5.24068        0.50046        4.93348
N          8.95973       -0.25782        6.06708
C          9.44469       -0.33151        7.44441
C         10.94667       -0.53943        7.41976
O         11.40090       -1.55282        6.90399
H          9.21976        0.63887        7.93615
H          9.61969       -0.47419        5.30585
C          8.72803       -1.48650        8.20863
H          7.63377       -1.32686        8.13740
H          8.93722       -2.44911        7.69224
C          9.01743       -1.65998        9.72620
H          8.33578       -2.46829       10.07468
C          8.68155       -0.39471       10.52512
H          8.79846       -0.58802       11.61277
H          7.62964       -0.09080       10.33905
H          9.35591        0.44226       10.24815
C         10.43958       -2.13973       10.04724
H         10.52054       -2.37117       11.13068
H         11.20217       -1.37175        9.82551
H         10.66893       -3.06703        9.48078
N         11.78408        0.39089        7.95670
C         13.22822        0.20927        7.94082
C         13.98312        1.34585        8.59211
O         13.39878        2.30400        9.07327
H         13.48325       -0.72812        8.48091
H         13.57254        0.12282        6.88762
H         11.37280        1.23433        8.38271
O         15.33084        1.30755        8.64772
H         15.83189        0.56667        8.27877


$end

$rem
JOBTYPE           opt
EXCHANGE        B97M-V
BASIS             6-31G*
--------------------------------------------------------------
 ----------------------------------------------------------------
             Standard Nuclear Orientation (Angstroms)
    I     Atom           X                Y                Z
 ----------------------------------------------------------------
    1      N       9.2360162850     1.3166695606     0.0027360458
    2      C       7.9302864064     1.7628732510     0.4816401457
    3      C       6.8152295280     0.8891666378    -0.0398177821
    4      O       7.0708772048    -0.0489347123    -0.7825804086
    5      H       7.9199025375     1.7205918234     1.5920905644
    6      H       7.7555334053     2.8144537683     0.1641472514
    7      H       9.2809090243     1.4392492640    -1.0349797542
    8      H       9.9701774046     1.9286118503     0.4264393823
    9      N       5.5279483523     1.1646618345     0.3162062265
   10      C       4.3802874097     0.3648253956    -0.1260065290
   11      C       3.0549340882     1.0478543641     0.2476614343
   12      O       3.0682782756     2.0514219168     0.9479190602
   13      C       4.4811951884    -1.0548219067     0.5049292386
   14      H       4.3725881412    -0.9640727583     1.6078405273
   15      H       5.4749670649    -1.5003684682     0.3058570477
   16      C       3.4854489561    -2.0403308515    -0.0298897708
   17      N       3.4050883650    -2.4259663150    -1.3139764860
   18      C       2.3902399942    -3.3079129578    -1.3606380101
   19      H       2.0655948781    -3.8063564387    -2.2643701259
   20      N       1.8226420359    -3.5004407482    -0.1512951675
   21      C       2.5135991791    -2.7035094392     0.6879393767
   22      H       2.3163412670    -2.6129530204     1.7477407545
   23      H       4.0002812021    -2.1101664737    -2.1116101741
   24      H       5.3830998280     1.9941851586     0.9103772699
   25      H       4.4210221270     0.3049882348    -1.2360125226
   26      N       1.8580495973     0.5507419698    -0.1847351508
   27      C       0.5754420940     1.1550312217     0.1813874204
   28      C      -0.5972984173     0.2162033944    -0.1088919003
   29      O      -0.4144781010    -0.8157034245    -0.7400547972
   30      H       0.5768013337     1.3048255126     1.2841261433
   31      C       0.4139064538     2.5066504066    -0.5532659082
   32      H       1.2763852522     3.1687101305    -0.3288042366
   33      H       0.3879455255     2.3108403000    -1.6495099694
   34      O      -0.7566056085     3.1659087919    -0.1595675451
   35      H      -0.8321563407     3.9680885970    -0.7388055812
   36      H       1.8651741769    -0.2911077204    -0.7705775533
   37      N      -1.8438764115     0.5133765398     0.3639352185
   38      C      -3.0103081338    -0.3480081734     0.1765645707
   39      C      -4.2422024241     0.3902004249     0.6636649630
   40      O      -4.3161576180     0.7164043859     1.8415548063
   41      H      -3.1129772800    -0.5490087379    -0.9111380065
   42      H      -1.9665455924     1.3929058289     0.8866347431
   43      C      -2.8183408117    -1.6920849690     0.9435337871
   44      H      -1.8714952105    -2.1566579908     0.6035059868
   45      H      -2.6890357475    -1.4773200904     2.0271358116
   46      C      -3.8982238921    -2.7981815301     0.7783995821
   47      H      -3.5106685139    -3.6852010914     1.3283515943
   48      C      -4.0842099535    -3.2074987991    -0.6878423051
   49      H      -4.7816987493    -4.0692580849    -0.7578390178
   50      H      -3.1113578183    -3.5134547167    -1.1276691809
   51      H      -4.5058854689    -2.3719082137    -1.2844751107
   52      C      -5.2508534194    -2.4613169053     1.4207802738
   53      H      -5.9154447545    -3.3505391045     1.3812395782
   54      H      -5.7753680763    -1.6451894512     0.8922716791
   55      H      -5.1111408200    -2.1852132446     2.4873686679
   56      N      -5.2527991603     0.6954508329    -0.1968998512
   57      C      -6.4419119782     1.4048049312     0.2521055027
   58      C      -7.4509262372     1.6414256439    -0.8486976741
   59      O      -7.2485936096     1.2572841356    -1.9899760858
   60      H      -6.9374817987     0.8143311517     1.0528481517
   61      H      -6.1422871563     2.3918533276     0.6658935331
   62      H      -5.1618015978     0.4091890979    -1.1826992500
   63      O      -8.6020094816     2.2889947912    -0.5719846017
   64      H      -8.8011143661     2.6092679284     0.3190040301
 ----------------------------------------------------------------
 Molecular Point Group                 C1    NOp =  1
 Largest Abelian Subgroup              C1    NOp =  1
 Nuclear Repulsion Energy =  3461.3563514312 hartrees
 There are      125 alpha and      125 beta electrons
 Requested basis set is 6-31G(d)
 There are 194 shells and 557 basis functions

 Total QAlloc Memory Limit   2000 MB
 Mega-Array Size       188 MB
 MEM_STATIC part       192 MB
 A cutoff of  1.0D-11 yielded   8336 shell pairs
 There are     70547 function pairs
 
 -------------------------------------------------------
 OpenMP Integral Computing Module                       
 Release: version 1.0, May 2013, Q-Chem Inc. Pittsburgh 
 -------------------------------------------------------
 Integral Job Info:
 Integral job number is                      11
 Integral operator is                         1
 short-range coefficients                     0
 long-range coefficients              100000000
 Omega coefficients                           0
 if combine SR and LR in K                    0
 Integral screening is                        0
 Integral computing path is                   2
 max size of driver memory is            800000
 size of driver memory is                593474
 size of scratch memory is              2361544
 max col of scratch BK array               1296
 max len of scratch array in speh3          155
 max len of scratch index in speh4           18
 max int batch size is                      520
 min int batch size is                       52
 fixed nKL is                                52
 max L of basis functions is                  2
 order of int derivative is                   0
 number of shells is                        194
 number of basis is                         557
 number of cartesian basis is               557
 number of contracted shell pairs          8336
 number of primitive shell pairs          26423
 maxK2 (contraction) of shell pair           36
 max number of K2 of shell pair               1
 max number of CS2 of shell pair            990
 max number of PS2 of shell pair           4266
 mem total for path MDJ                  657612
 -------------------------------------------------------
 Smallest overlap matrix eigenvalue = 1.19E-03

 Scale SEOQF with 1.000000e-02/1.000000e-01/1.000000e-01

 Standard Electronic Orientation quadrupole field applied
 Nucleus-field energy     =     0.0000000655 hartrees
 Guess from superposition of atomic densities
 Warning:  Energy on first SCF cycle will be non-variational
 SAD guess density has 250.000001 electrons

 -----------------------------------------------------------------------
  General SCF calculation program by
  Eric Jon Sundstrom, Paul Horn, Yuezhi Mao, Dmitri Zuev, Alec White,
  David Stuck, Shaama M.S., Shane Yost, Joonho Lee, David Small,
  Daniel Levine, Susi Lehtola, Hugh Burton, Evgeny Epifanovsky
 -----------------------------------------------------------------------
 Exchange:  B97M-V      Correlation:  B97M-V
 Using SG-2 standard quadrature grid
 Nonlocal Correlation:  VV10 with C = 0.0100 and b = 6.00 and scale = 1.00000
 Grid used for NLC:  SG-1 standard quadrature
 using 8 threads for integral computing
 -------------------------------------------------------
 OpenMP Integral computing Module                
 Release: version 1.0, May 2013, Q-Chem Inc. Pittsburgh 
 -------------------------------------------------------
 -------------------------------------------------------
 OpenMP BLAS3 based DFT computing Module                
 Release: version 1.0, May 2013, Q-Chem Inc. Pittsburgh 
 -------------------------------------------------------
 -------------------------------------------------------
 OpenMP BLAS3 based DFT computing Module                
 Release: version 1.0, May 2013, Q-Chem Inc. Pittsburgh 
 -------------------------------------------------------
 -------------------------------------------------------
 OpenMP BLAS3 based DFT computing Module                
 Release: version 1.0, May 2013, Q-Chem Inc. Pittsburgh 
 -------------------------------------------------------
 Nonlocal correlation = 0.908171859940
 A restricted SCF calculation will be
 performed using DIIS
 SCF converges when DIIS error is below 1.0e-08
 ---------------------------------------
  Cycle       Energy         DIIS error
 ---------------------------------------
 Nonlocal correlation = 9.510590548763e-01
    1   -1658.2673867028      3.39e-02  
 Nonlocal correlation = 9.240736771209e-01
    2   -1651.5943810554      4.63e-03  
 Nonlocal correlation = 9.372964534976e-01
    3   -1649.6850810633      8.86e-03  
 Nonlocal correlation = 9.388457301674e-01
    4   -1652.1598584763      2.10e-03  
 Nonlocal correlation = 9.388871592124e-01
    5   -1652.3105847119      4.37e-04  
 Nonlocal correlation = 9.387907587445e-01
    6   -1652.3154843106      2.02e-04  
 Nonlocal correlation = 9.387768367110e-01
    7   -1652.3168040810      7.25e-05  
 Nonlocal correlation = 9.387745312044e-01
    8   -1652.3169592529      3.26e-05  
 Nonlocal correlation = 9.387773709219e-01
    9   -1652.3169938859      8.01e-06  
 Nonlocal correlation = 9.387784670603e-01
   10   -1652.3169957809      3.06e-06  
 Nonlocal correlation = 9.387780143778e-01
   11   -1652.3169960786      1.18e-06  
 Nonlocal correlation = 9.387780152443e-01
   12   -1652.3169961268      3.27e-07  
 Nonlocal correlation = 9.387780258178e-01
   13   -1652.3169961296      1.62e-07  
 Nonlocal correlation = 9.387780231387e-01
   14   -1652.3169961304      4.63e-08  
 Nonlocal correlation = 9.387780188311e-01
   15   -1652.3169961305      1.36e-08  
   16   -1652.3169961305      5.23e-09  Convergence criterion met
 ---------------------------------------
 SCF time:   CPU 23066.22s  wall 2887.00s 
 SCF   energy in the final basis set =    -1652.3169961305
 Total energy in the final basis set =    -1652.3169961305
 
 --------------------------------------------------------------
 
                    Orbital Energies (a.u.)
 --------------------------------------------------------------
 
 Alpha MOs
 -- Occupied --
-19.232 -19.178 -19.167 -19.134 -19.133 -19.128 -19.118 -14.406
-14.389 -14.377 -14.372 -14.367 -14.325 -14.310 -10.343 -10.294
-10.291 -10.287 -10.277 -10.262 -10.252 -10.248 -10.243 -10.242
-10.224 -10.220 -10.204 -10.199 -10.187 -10.179 -10.177 -10.169
-10.167  -1.110  -1.039  -1.036  -1.030  -1.026  -1.025  -1.019
 -1.004  -0.921  -0.911  -0.906  -0.903  -0.859  -0.853  -0.784
 -0.777  -0.753  -0.743  -0.716  -0.707  -0.666  -0.650  -0.641
 -0.638  -0.629  -0.615  -0.589  -0.572  -0.564  -0.561  -0.549
 -0.546  -0.540  -0.525  -0.512  -0.502  -0.496  -0.486  -0.476
 -0.468  -0.465  -0.459  -0.454  -0.449  -0.439  -0.434  -0.427
 -0.426  -0.420  -0.417  -0.411  -0.408  -0.403  -0.403  -0.398
 -0.396  -0.393  -0.390  -0.377  -0.375  -0.369  -0.367  -0.365
 -0.364  -0.362  -0.359  -0.357  -0.345  -0.343  -0.339  -0.337
 -0.324  -0.319  -0.314  -0.305  -0.292  -0.291  -0.289  -0.265
 -0.257  -0.253  -0.245  -0.243  -0.234  -0.230  -0.229  -0.225
 -0.222  -0.222  -0.213  -0.204  -0.186
 -- Virtual --
 -0.035  -0.016  -0.012  -0.001   0.009   0.013   0.022   0.035
  0.039   0.044   0.054   0.059   0.061   0.077   0.079   0.086
  0.092   0.098   0.109   0.112   0.116   0.123   0.125   0.127
  0.129   0.134   0.138   0.140   0.142   0.145   0.152   0.153
  0.157   0.160   0.164   0.167   0.168   0.176   0.180   0.185
  0.189   0.192   0.201   0.206   0.212   0.213   0.215   0.220
  0.222   0.226   0.234   0.243   0.249   0.255   0.261   0.269
  0.282   0.294   0.296   0.318   0.328   0.342   0.343   0.350
  0.359   0.391   0.396   0.407   0.427   0.431   0.450   0.485
  0.497   0.503   0.512   0.516   0.518   0.522   0.522   0.528
  0.536   0.537   0.547   0.549   0.557   0.560   0.569   0.572
  0.580   0.586   0.590   0.592   0.598   0.601   0.611   0.618
  0.624   0.627   0.638   0.641   0.650   0.651   0.655   0.661
  0.666   0.676   0.679   0.682   0.689   0.694   0.697   0.704
  0.708   0.716   0.724   0.730   0.735   0.738   0.743   0.754
  0.758   0.767   0.771   0.774   0.778   0.790   0.795   0.797
  0.805   0.809   0.811   0.816   0.818   0.821   0.825   0.831
  0.833   0.837   0.841   0.843   0.845   0.850   0.851   0.863
  0.866   0.873   0.876   0.879   0.880   0.888   0.890   0.893
  0.894   0.899   0.902   0.905   0.908   0.912   0.915   0.917
  0.923   0.925   0.934   0.936   0.939   0.945   0.947   0.956
  0.961   0.966   0.973   0.978   0.983   0.987   0.993   0.995
  1.006   1.012   1.022   1.034   1.040   1.046   1.056   1.069
  1.072   1.077   1.094   1.099   1.109   1.117   1.135   1.139
  1.156   1.157   1.172   1.185   1.190   1.212   1.224   1.232
  1.238   1.246   1.264   1.272   1.277   1.284   1.300   1.303
  1.317   1.330   1.345   1.351   1.361   1.367   1.375   1.382
  1.384   1.387   1.391   1.404   1.417   1.429   1.434   1.438
  1.448   1.463   1.480   1.484   1.493   1.505   1.509   1.530
  1.531   1.539   1.551   1.556   1.563   1.575   1.597   1.604
  1.610   1.628   1.631   1.646   1.667   1.670   1.689   1.702
  1.709   1.725   1.732   1.740   1.742   1.748   1.759   1.768
  1.770   1.778   1.787   1.790   1.793   1.805   1.810   1.814
  1.817   1.821   1.829   1.834   1.843   1.845   1.857   1.860
  1.870   1.876   1.885   1.887   1.894   1.900   1.902   1.909
  1.916   1.918   1.920   1.934   1.944   1.945   1.956   1.974
  1.980   1.986   1.988   1.996   2.001   2.008   2.018   2.026
  2.028   2.034   2.048   2.052   2.061   2.067   2.082   2.085
  2.089   2.095   2.096   2.114   2.121   2.130   2.137   2.139
  2.145   2.167   2.170   2.192   2.199   2.200   2.220   2.236
  2.247   2.254   2.262   2.269   2.290   2.298   2.305   2.312
  2.319   2.321   2.344   2.353   2.361   2.369   2.381   2.389
  2.405   2.407   2.424   2.431   2.441   2.443   2.453   2.460
  2.465   2.472   2.488   2.491   2.498   2.505   2.536   2.540
  2.549   2.558   2.572   2.598   2.608   2.620   2.643   2.646
  2.663   2.673   2.675   2.684   2.695   2.710   2.732   2.736
  2.755   2.760   2.773   2.794   2.799   2.821   2.825   2.838
  2.858   2.874   2.897   2.922   2.928   2.937   2.949   2.982
  3.009   3.028   3.040   3.057   3.067   3.079   3.103   3.124
  3.133   3.142   3.198   3.211   3.253   3.274   3.307   3.909
  3.916   3.971   4.088   4.108   4.136   4.146   4.172   4.181
  4.192   4.211   4.247   4.273   4.310   4.333   4.350   4.405
  4.411   4.423   4.455   4.469   4.486   4.514   4.552   4.562
  4.593   4.645   4.652   4.707   4.771   4.787   4.813   4.847
 --------------------------------------------------------------
 
          Ground-State Mulliken Net Atomic Charges

     Atom                 Charge (a.u.)
  ----------------------------------------
      1 N                    -0.712412
      2 C                    -0.254794
      3 C                     0.650828
      4 O                    -0.520266
      5 H                     0.173319
      6 H                     0.142468
      7 H                     0.311712
      8 H                     0.302640
      9 N                    -0.671984
     10 C                    -0.039286
     11 C                     0.647901
     12 O                    -0.530745
     13 C                    -0.368753
     14 H                     0.173408
     15 H                     0.209974
     16 C                     0.234074
     17 N                    -0.597588
     18 C                     0.173031
     19 H                     0.166013
     20 N                    -0.422571
     21 C                    -0.036303
     22 H                     0.149546
     23 H                     0.368674
     24 H                     0.354949
     25 H                     0.162211
     26 N                    -0.673384
     27 C                    -0.056318
     28 C                     0.645422
     29 O                    -0.518180
     30 H                     0.195414
     31 C                    -0.031546
     32 H                     0.168986
     33 H                     0.128041
     34 O                    -0.638291
     35 H                     0.412212
     36 H                     0.372822
     37 N                    -0.671628
     38 C                     0.004884
     39 C                     0.624880
     40 O                    -0.528472
     41 H                     0.155046
     42 H                     0.366977
     43 C                    -0.306885
     44 H                     0.199553
     45 H                     0.158566
     46 C                    -0.107162
     47 H                     0.142834
     48 C                    -0.455136
     49 H                     0.149521
     50 H                     0.167693
     51 H                     0.127694
     52 C                    -0.460416
     53 H                     0.143739
     54 H                     0.136742
     55 H                     0.160439
     56 N                    -0.656576
     57 C                    -0.227007
     58 C                     0.644281
     59 O                    -0.451001
     60 H                     0.198971
     61 H                     0.198709
     62 H                     0.368335
     63 O                    -0.589347
     64 H                     0.433541
  ----------------------------------------
  Sum of atomic charges =     0.000000

 -----------------------------------------------------------------
                    Cartesian Multipole Moments
 -----------------------------------------------------------------
    Charge (ESU x 10^10)
                 0.0000
    Dipole Moment (Debye)
         X      -1.5876      Y       6.0296      Z      -0.7157
       Tot       6.2760
    Quadrupole Moments (Debye-Ang)
        XX    -178.3220     XY       8.6861     YY    -186.0840
        XZ     -21.3345     YZ       1.9947     ZZ    -194.2433
    Octopole Moments (Debye-Ang^2)
       XXX    -201.0419    XXY     295.5309    XYY     -32.5313
       YYY     148.1219    XXZ     199.9365    XYZ     -26.6914
       YYZ     -29.5749    XZZ      94.1410    YZZ     -14.5542
       ZZZ     -22.3078
    Hexadecapole Moments (Debye-Ang^3)
      XXXX  -25437.4585   XXXY     991.1206   XXYY   -4391.1635
      XYYY    -142.6930   YYYY   -4352.4604   XXXZ   -1561.5110
      XXYZ     465.7432   XYYZ    -157.0003   YYYZ       1.0630
      XXZZ   -4865.3109   XYZZ     -13.0676   YYZZ    -843.6057
      XZZZ     -70.1434   YZZZ      43.3874   ZZZZ   -1027.9792
 -----------------------------------------------------------------
 Calculating analytic gradient of the SCF energy
 Gradient of SCF Energy
            1           2           3           4           5           6
    1  -0.0106556  -0.0074129   0.0074184  -0.0007211  -0.0010954   0.0087826
    2  -0.0047251  -0.0170140   0.0210969   0.0019941  -0.0037579   0.0035677
    3   0.0077431  -0.0046688   0.0160072   0.0056178   0.0108033  -0.0091765
            7           8           9          10          11          12
    1   0.0012091   0.0186728   0.0011656  -0.0081606   0.0099684  -0.0079515
    2   0.0023818   0.0113981  -0.0255228   0.0077218  -0.0142938  -0.0073006
    3  -0.0271191   0.0130762  -0.0160904   0.0053729  -0.0096438  -0.0075269
           13          14          15          16          17          18
    1  -0.0007043   0.0007610   0.0025114  -0.0179510  -0.0112881   0.0350235
    2   0.0118048   0.0013960  -0.0151154  -0.0337736  -0.0050725   0.0253623
    3   0.0074263   0.0134573  -0.0027865  -0.0567633   0.0309224  -0.0186802
           19          20          21          22          23          24
    1  -0.0023266  -0.0016214  -0.0133378   0.0010830   0.0153437   0.0104173
    2  -0.0027043   0.0102191  -0.0094205   0.0015717   0.0093247   0.0154227
    3  -0.0019851   0.0379296   0.0179276   0.0030729  -0.0244900   0.0097110
           25          26          27          28          29          30
    1  -0.0018860  -0.0092703   0.0019932   0.0089112  -0.0078724  -0.0025037
    2   0.0042753   0.0178899  -0.0138585   0.0195135   0.0031643  -0.0064604
    3  -0.0093552   0.0168776  -0.0149506   0.0073557   0.0085184   0.0113968
           31          32          33          34          35          36
    1  -0.0163066   0.0015382  -0.0039198   0.0158480  -0.0008828   0.0105275
    2  -0.0036235   0.0134010   0.0023212  -0.0179204   0.0203447  -0.0083386
    3   0.0090499   0.0029682  -0.0088132   0.0066482  -0.0166041  -0.0091396
           37          38          39          40          41          42
    1  -0.0096308  -0.0030111   0.0065727  -0.0013952  -0.0043134   0.0000316
    2  -0.0295139   0.0173334  -0.0127143  -0.0025664   0.0011728   0.0149584
    3  -0.0154679   0.0168116  -0.0173837  -0.0037385  -0.0085366   0.0083607
           43          44          45          46          47          48
    1  -0.0018142   0.0066667   0.0034679   0.0028270   0.0008175  -0.0030855
    2   0.0108678  -0.0107387  -0.0027271  -0.0039633  -0.0086701   0.0040301
    3  -0.0045375  -0.0012279   0.0119575  -0.0001486   0.0054458  -0.0007410
           49          50          51          52          53          54
    1  -0.0065267   0.0106993  -0.0033552   0.0004117  -0.0057960  -0.0039264
    2  -0.0093235  -0.0044722   0.0081987   0.0045986  -0.0085460   0.0047079
    3   0.0011675  -0.0017104  -0.0035666  -0.0056139  -0.0008668  -0.0048000
           55          56          57          58          59          60
    1   0.0041077  -0.0065989  -0.0018408  -0.0123440   0.0064480  -0.0059792
    2   0.0002281   0.0097588  -0.0009090   0.0127933  -0.0096047  -0.0087184
    3   0.0118896   0.0266065  -0.0098710   0.0256945  -0.0251187   0.0022284
           61          62          63          64
    1   0.0041747   0.0101047   0.0036644  -0.0156861
    2   0.0103828  -0.0094646   0.0004830   0.0071633
    3  -0.0021039  -0.0154436   0.0113631  -0.0047419
 Max gradient component =       5.676E-02
 RMS gradient           =       1.230E-02
 Gradient time:  CPU 1835.87 s  wall 399.68 s
 Geometry Optimization Parameters
   NAtoms,    NIC,     NZ,  NCons,   NDum,   NFix, NCnnct, MaxDiis
       64     460       0       0       0       0       0       0


** GEOMETRY OPTIMIZATION IN DELOCALIZED INTERNAL COORDINATES **
   Searching for a Minimum

   Optimization Cycle:   1

                       Coordinates (Angstroms)
     ATOM                X               Y               Z
      1  N         9.2360162850    1.3166695606    0.0027360458
      2  C         7.9302864064    1.7628732510    0.4816401457
      3  C         6.8152295280    0.8891666378   -0.0398177821
      4  O         7.0708772048   -0.0489347123   -0.7825804086
      5  H         7.9199025375    1.7205918234    1.5920905644
      6  H         7.7555334053    2.8144537683    0.1641472514
      7  H         9.2809090243    1.4392492640   -1.0349797542
      8  H         9.9701774046    1.9286118503    0.4264393823
      9  N         5.5279483523    1.1646618345    0.3162062265
     10  C         4.3802874097    0.3648253956   -0.1260065290
     11  C         3.0549340882    1.0478543641    0.2476614343
     12  O         3.0682782756    2.0514219168    0.9479190602
     13  C         4.4811951884   -1.0548219067    0.5049292386
     14  H         4.3725881412   -0.9640727583    1.6078405273
     15  H         5.4749670649   -1.5003684682    0.3058570477
     16  C         3.4854489561   -2.0403308515   -0.0298897708
     17  N         3.4050883650   -2.4259663150   -1.3139764860
     18  C         2.3902399942   -3.3079129578   -1.3606380101
     19  H         2.0655948781   -3.8063564387   -2.2643701259
     20  N         1.8226420359   -3.5004407482   -0.1512951675
     21  C         2.5135991791   -2.7035094392    0.6879393767
     22  H         2.3163412670   -2.6129530204    1.7477407545
     23  H         4.0002812021   -2.1101664737   -2.1116101741
     24  H         5.3830998280    1.9941851586    0.9103772699
     25  H         4.4210221270    0.3049882348   -1.2360125226
     26  N         1.8580495973    0.5507419698   -0.1847351508
     27  C         0.5754420940    1.1550312217    0.1813874204
     28  C        -0.5972984173    0.2162033944   -0.1088919003
     29  O        -0.4144781010   -0.8157034245   -0.7400547972
     30  H         0.5768013337    1.3048255126    1.2841261433
     31  C         0.4139064538    2.5066504066   -0.5532659082
     32  H         1.2763852522    3.1687101305   -0.3288042366
     33  H         0.3879455255    2.3108403000   -1.6495099694
     34  O        -0.7566056085    3.1659087919   -0.1595675451
     35  H        -0.8321563407    3.9680885970   -0.7388055812
     36  H         1.8651741769   -0.2911077204   -0.7705775533
     37  N        -1.8438764115    0.5133765398    0.3639352185
     38  C        -3.0103081338   -0.3480081734    0.1765645707
     39  C        -4.2422024241    0.3902004249    0.6636649630
     40  O        -4.3161576180    0.7164043859    1.8415548063
     41  H        -3.1129772800   -0.5490087379   -0.9111380065
     42  H        -1.9665455924    1.3929058289    0.8866347431
     43  C        -2.8183408117   -1.6920849690    0.9435337871
     44  H        -1.8714952105   -2.1566579908    0.6035059868
     45  H        -2.6890357475   -1.4773200904    2.0271358116
     46  C        -3.8982238921   -2.7981815301    0.7783995821
     47  H        -3.5106685139   -3.6852010914    1.3283515943
     48  C        -4.0842099535   -3.2074987991   -0.6878423051
     49  H        -4.7816987493   -4.0692580849   -0.7578390178
     50  H        -3.1113578183   -3.5134547167   -1.1276691809
     51  H        -4.5058854689   -2.3719082137   -1.2844751107
     52  C        -5.2508534194   -2.4613169053    1.4207802738
     53  H        -5.9154447545   -3.3505391045    1.3812395782
     54  H        -5.7753680763   -1.6451894512    0.8922716791
     55  H        -5.1111408200   -2.1852132446    2.4873686679
     56  N        -5.2527991603    0.6954508329   -0.1968998512
     57  C        -6.4419119782    1.4048049312    0.2521055027
     58  C        -7.4509262372    1.6414256439   -0.8486976741
     59  O        -7.2485936096    1.2572841356   -1.9899760858
     60  H        -6.9374817987    0.8143311517    1.0528481517
     61  H        -6.1422871563    2.3918533276    0.6658935331
     62  H        -5.1618015978    0.4091890979   -1.1826992500
     63  O        -8.6020094816    2.2889947912   -0.5719846017
     64  H        -8.8011143661    2.6092679284    0.3190040301
   Point Group: c1    Number of degrees of freedom:   186


   Energy is  -1652.316996131


 Attempting to Generate Delocalized Internal Coordinates

186 Hessian modes will be used to form the next step
  Hessian Eigenvalues:
     0.002000    0.002000    0.002000    0.002984    0.004269    0.004570
     0.004731    0.005207    0.006768    0.006996    0.007134    0.007434
     0.007604    0.007628    0.007920    0.008290    0.009233    0.010581
     0.011152    0.011190    0.012020    0.012279    0.012510    0.012534
     0.012979    0.013144    0.015659    0.017151    0.020111    0.020149
     0.020444    0.020672    0.022337    0.022641    0.022720    0.023027
     0.023974    0.024484    0.028852    0.031353    0.039529    0.043811
     0.044813    0.045156    0.046141    0.046482    0.047669    0.049666
     0.049796    0.050044    0.050217    0.050880    0.050981    0.051699
     0.053049    0.054564    0.056259    0.057607    0.057927    0.058563
     0.064230    0.065028    0.065881    0.065972    0.066147    0.092091
     0.097440    0.098431    0.100874    0.115351    0.128376    0.130266
     0.131910    0.133382    0.138895    0.159967    0.159973    0.159998
     0.159999    0.159999    0.160000    0.160000    0.160000    0.160000
     0.160000    0.160000    0.160000    0.160000    0.160000    0.160000
     0.160000    0.160000    0.171450    0.172261    0.173319    0.173659
     0.177735    0.180686    0.184137    0.186378    0.219957    0.220000
     0.220000    0.220006    0.220007    0.220235    0.220413    0.220797
     0.220878    0.226587    0.234480    0.249930    0.249991    0.249996
     0.249997    0.249998    0.250000    0.250000    0.250000    0.250000
     0.250000    0.250000    0.268697    0.270801    0.272615    0.279224
     0.287762    0.289808    0.290914    0.294210    0.307059    0.311595
     0.313993    0.321909    0.322525    0.322984    0.323510    0.323600
     0.323659    0.323939    0.324204    0.324415    0.324499    0.324624
     0.325078    0.325087    0.325115    0.325335    0.325398    0.325773
     0.326051    0.327983    0.329064    0.331609    0.357622    0.357778
     0.360882    0.364262    0.367061    0.368882    0.375203    0.404508
     0.405119    0.407011    0.426896    0.426971    0.427113    0.434476
     0.445849    0.456372    0.490628    0.493663    0.517054    0.517618
     0.522018    0.525445    0.527097    0.538887    0.551470    0.556719
     0.560211    0.934341    0.937192    0.938255    0.939078    0.949094

 Minimum Search - Taking Simple RFO Step
 Searching for Lamda that Minimizes Along All modes
 Value Taken    Lamda =  -0.07739326
 Calculated Step too Large.  Step scaled by  0.591907
 Step Taken.  Stepsize is  0.300000

                             Maximum     Tolerance    Cnvgd?
         Gradient           0.056067      0.000300      NO
         Displacement       0.101071      0.001200      NO
         Energy change     *********      0.000001      NO


 New Cartesian Coordinates Obtained by Inverse Iteration

 Displacement from previous Coordinates is:  2.369783
 ----------------------------------------------------------------
             Standard Nuclear Orientation (Angstroms)
    I     Atom           X                Y                Z
 ----------------------------------------------------------------
    1      N       9.1229251945     1.2474123273    -0.0746487458
    2      C       7.8336856821     1.7092748443     0.4177645773
    3      C       6.7209177311     0.8292055034    -0.1000234750
    4      O       6.9515539986    -0.1012043709    -0.8629607434
    5      H       7.8426749076     1.6667112452     1.5196754425
    6      H       7.6271067319     2.7575589166     0.1217947841
    7      H       9.1508766689     1.3649361264    -1.0957207403
    8      H       9.8514700000     1.8553000496     0.3239797258
    9      N       5.4587714835     1.1318327364     0.3027694787
   10      C       4.3058683005     0.3602129053    -0.1135901860
   11      C       3.0415513468     1.1003301587     0.3065183927
   12      O       3.1167526456     2.0967238699     1.0186173222
   13      C       4.3645651313    -1.0628472642     0.4952338000
   14      H       4.2843542615    -0.9802736087     1.5907113610
   15      H       5.3444332295    -1.5092470700     0.2688009760
   16      C       3.3169409202    -2.0025354296    -0.0135437118
   17      N       3.1762972954    -2.3821743772    -1.3065903116
   18      C       2.1247808788    -3.2358911506    -1.3625939956
   19      H       1.7753634086    -3.7028540842    -2.2707832151
   20      N       1.5831317388    -3.4259171922    -0.1620708965
   21      C       2.3246664361    -2.6569321870     0.6780842547
   22      H       2.1366943074    -2.5888813332     1.7391014522
   23      H       3.7581222031    -2.0828310080    -2.0949886594
   24      H       5.3162171468     1.9478387655     0.8984733373
   25      H       4.3207082831     0.3014258102    -1.2172305573
   26      N       1.8483437966     0.6170429257    -0.1237385728
   27      C       0.5878540659     1.2157162451     0.2548379982
   28      C      -0.5347834275     0.2427205128    -0.0670615736
   29      O      -0.3085959914    -0.7696515588    -0.7203484610
   30      H       0.5910156041     1.3638110848     1.3495735640
   31      C       0.3976928033     2.5646650758    -0.4471985294
   32      H       1.2520636565     3.2207540646    -0.2119487095
   33      H       0.3758492197     2.3864700697    -1.5398969939
   34      O      -0.8012057693     3.1561093728    -0.0045947983
   35      H      -0.9288268944     3.9664574267    -0.5368555026
   36      H       1.8220169011    -0.2166639568    -0.7077188508
   37      N      -1.7722516305     0.5311550199     0.4072725459
   38      C      -2.9127805886    -0.3468432225     0.2067814643
   39      C      -4.1452350090     0.3884256872     0.6846091227
   40      O      -4.2437427157     0.7319512475     1.8571151650
   41      H      -2.9953402552    -0.5555013976    -0.8744002664
   42      H      -1.9112193551     1.3982219887     0.9259915868
   43      C      -2.7222122909    -1.6718228444     0.9749396803
   44      H      -1.7677991399    -2.1112103957     0.6494363509
   45      H      -2.6135974726    -1.4428961084     2.0486700789
   46      C      -3.7902129354    -2.7719444684     0.7937828108
   47      H      -3.4061831124    -3.6490765217     1.3464518006
   48      C      -3.9475950336    -3.1804817844    -0.6712627153
   49      H      -4.6343441290    -4.0379993852    -0.7588662197
   50      H      -2.9764542027    -3.4762975144    -1.0995876045
   51      H      -4.3617099412    -2.3544034442    -1.2729230118
   52      C      -5.1503561868    -2.4399090751     1.4120874955
   53      H      -5.8086351042    -3.3233932317     1.3644304618
   54      H      -5.6640770844    -1.6300783985     0.8755511432
   55      H      -5.0396606350    -2.1572710303     2.4706768978
   56      N      -5.1226724234     0.6570761750    -0.2168016963
   57      C      -6.3230101909     1.3440915662     0.1843047850
   58      C      -7.2599600257     1.5173577807    -0.9808476881
   59      O      -6.9967312369     1.1162578491    -2.0945723432
   60      H      -6.8345424130     0.7692840506     0.9767599836
   61      H      -6.0682124125     2.3368960934     0.5943750393
   62      H      -5.0174255520     0.3671393295    -1.1881945765
   63      O      -8.4271416224     2.1414615856    -0.7603996582
   64      H      -8.5978131642     2.4437610703     0.1420100433
 ----------------------------------------------------------------
 Molecular Point Group                 C1    NOp =  1
 Largest Abelian Subgroup              C1    NOp =  1
 Nuclear Repulsion Energy =  3504.9866430832 hartrees
 There are      125 alpha and      125 beta electrons
 Applying Cartesian multipole field
    Component          Value
    ---------          -----
     (2,0,0)        1.00000E-12
     (0,2,0)        2.00000E-11
     (0,0,2)       -3.00000E-11
 Nucleus-field energy     =     0.0000000619 hartrees
 Requested basis set is 6-31G(d)
 There are 194 shells and 557 basis functions
 A cutoff of  1.0D-11 yielded   8500 shell pairs
 There are     71794 function pairs
 Smallest overlap matrix eigenvalue = 1.15E-03
 Guess MOs from SCF MO coefficient file

 -----------------------------------------------------------------------
  General SCF calculation program by
  Eric Jon Sundstrom, Paul Horn, Yuezhi Mao, Dmitri Zuev, Alec White,
  David Stuck, Shaama M.S., Shane Yost, Joonho Lee, David Small,
  Daniel Levine, Susi Lehtola, Hugh Burton, Evgeny Epifanovsky
 -----------------------------------------------------------------------
 Exchange:  B97M-V      Correlation:  B97M-V
 Using SG-2 standard quadrature grid
 Nonlocal Correlation:  VV10 with C = 0.0100 and b = 6.00 and scale = 1.00000
 Grid used for NLC:  SG-1 standard quadrature
 using 8 threads for integral computing
 -------------------------------------------------------
 OpenMP Integral computing Module                
 Release: version 1.0, May 2013, Q-Chem Inc. Pittsburgh 
 -------------------------------------------------------
 -------------------------------------------------------
 OpenMP BLAS3 based DFT computing Module                
 Release: version 1.0, May 2013, Q-Chem Inc. Pittsburgh 
 -------------------------------------------------------
 -------------------------------------------------------
 OpenMP BLAS3 based DFT computing Module                
 Release: version 1.0, May 2013, Q-Chem Inc. Pittsburgh 
 -------------------------------------------------------
 -------------------------------------------------------
 OpenMP BLAS3 based DFT computing Module                
 Release: version 1.0, May 2013, Q-Chem Inc. Pittsburgh 
 -------------------------------------------------------
 Nonlocal correlation = 0.936707976513
 A restricted SCF calculation will be
 performed using DIIS
 SCF converges when DIIS error is below 1.0e-08
 ---------------------------------------
  Cycle       Energy         DIIS error
 ---------------------------------------
 Nonlocal correlation = 9.373718180405e-01
    1   -1652.3328691091      5.56e-04  
 Nonlocal correlation = 9.368806927203e-01
    2   -1652.3507795811      1.43e-04  
 Nonlocal correlation = 9.371018995317e-01
    3   -1652.3502789764      1.91e-04  
 Nonlocal correlation = 9.371134241203e-01
    4   -1652.3514093211      4.90e-05  
 Nonlocal correlation = 9.371197579920e-01
    5   -1652.3514827130      1.42e-05  
 Nonlocal correlation = 9.371163991745e-01
    6   -1652.3514887606      4.16e-06  
 Nonlocal correlation = 9.371160979405e-01
    7   -1652.3514892691      1.42e-06  
 Nonlocal correlation = 9.371163726977e-01
    8   -1652.3514893235      7.28e-07  
 Nonlocal correlation = 9.371163904392e-01
    9   -1652.3514893402      2.22e-07  
 Nonlocal correlation = 9.371163989691e-01
   10   -1652.3514893418      5.78e-08  
 Nonlocal correlation = 9.371163911794e-01
   11   -1652.3514893419      2.17e-08  
   12   -1652.3514893419      5.66e-09  Convergence criterion met
 ---------------------------------------
 SCF time:   CPU 16238.41s  wall 2033.00s 
 SCF   energy in the final basis set =    -1652.3514893419
 Total energy in the final basis set =    -1652.3514893419
 
 --------------------------------------------------------------
 
                    Orbital Energies (a.u.)
 --------------------------------------------------------------
 
 Alpha MOs
 -- Occupied --
-19.234 -19.180 -19.169 -19.136 -19.136 -19.131 -19.119 -14.400
-14.387 -14.374 -14.371 -14.364 -14.321 -14.309 -10.341 -10.291
-10.291 -10.286 -10.275 -10.259 -10.244 -10.243 -10.241 -10.236
-10.223 -10.215 -10.205 -10.198 -10.185 -10.178 -10.173 -10.167
-10.165  -1.117  -1.040  -1.038  -1.032  -1.031  -1.027  -1.018
 -0.999  -0.928  -0.918  -0.913  -0.908  -0.863  -0.851  -0.789
 -0.780  -0.757  -0.746  -0.718  -0.709  -0.668  -0.653  -0.644
 -0.641  -0.628  -0.615  -0.586  -0.578  -0.567  -0.561  -0.555
 -0.550  -0.546  -0.528  -0.514  -0.504  -0.498  -0.488  -0.480
 -0.472  -0.467  -0.461  -0.458  -0.453  -0.439  -0.433  -0.428
 -0.427  -0.424  -0.414  -0.413  -0.410  -0.406  -0.401  -0.399
 -0.397  -0.396  -0.388  -0.379  -0.373  -0.372  -0.370  -0.368
 -0.366  -0.364  -0.360  -0.358  -0.346  -0.344  -0.341  -0.339
 -0.326  -0.319  -0.316  -0.308  -0.294  -0.293  -0.291  -0.269
 -0.260  -0.252  -0.247  -0.245  -0.236  -0.232  -0.231  -0.227
 -0.225  -0.223  -0.214  -0.206  -0.188
 -- Virtual --
 -0.034  -0.015  -0.012  -0.000   0.010   0.015   0.022   0.038
  0.046   0.047   0.057   0.063   0.064   0.080   0.085   0.092
  0.100   0.104   0.112   0.117   0.123   0.127   0.130   0.132
  0.134   0.139   0.143   0.145   0.147   0.152   0.155   0.158
  0.161   0.164   0.168   0.170   0.173   0.179   0.183   0.186
  0.194   0.198   0.204   0.210   0.214   0.217   0.218   0.221
  0.224   0.230   0.239   0.247   0.252   0.259   0.267   0.276
  0.284   0.295   0.308   0.317   0.331   0.339   0.344   0.349
  0.362   0.390   0.396   0.413   0.430   0.434   0.453   0.484
  0.498   0.505   0.510   0.516   0.518   0.519   0.523   0.530
  0.534   0.539   0.547   0.554   0.560   0.564   0.568   0.572
  0.579   0.587   0.591   0.596   0.597   0.602   0.616   0.623
  0.628   0.632   0.642   0.644   0.653   0.655   0.659   0.664
  0.668   0.676   0.684   0.686   0.693   0.695   0.702   0.707
  0.712   0.720   0.725   0.731   0.739   0.741   0.746   0.755
  0.764   0.769   0.770   0.774   0.780   0.792   0.799   0.801
  0.810   0.811   0.815   0.819   0.821   0.822   0.825   0.832
  0.833   0.838   0.845   0.846   0.851   0.853   0.853   0.867
  0.870   0.877   0.877   0.883   0.886   0.893   0.894   0.895
  0.900   0.907   0.909   0.909   0.911   0.918   0.922   0.924
  0.927   0.930   0.937   0.940   0.943   0.950   0.955   0.959
  0.966   0.969   0.978   0.983   0.991   0.994   1.004   1.007
  1.009   1.017   1.026   1.036   1.044   1.053   1.061   1.077
  1.080   1.084   1.102   1.108   1.110   1.121   1.134   1.138
  1.156   1.163   1.175   1.186   1.194   1.215   1.231   1.233
  1.242   1.248   1.267   1.276   1.279   1.293   1.311   1.316
  1.324   1.329   1.345   1.351   1.362   1.373   1.376   1.381
  1.383   1.388   1.398   1.409   1.419   1.429   1.435   1.438
  1.452   1.472   1.488   1.490   1.509   1.514   1.519   1.527
  1.540   1.545   1.556   1.563   1.567   1.585   1.600   1.608
  1.616   1.627   1.632   1.647   1.669   1.677   1.686   1.714
  1.723   1.733   1.742   1.745   1.754   1.762   1.769   1.777
  1.780   1.781   1.788   1.791   1.796   1.808   1.815   1.820
  1.826   1.831   1.838   1.842   1.851   1.855   1.862   1.866
  1.877   1.887   1.889   1.892   1.897   1.906   1.909   1.913
  1.916   1.920   1.926   1.936   1.948   1.957   1.969   1.979
  1.983   1.993   1.996   2.004   2.009   2.017   2.033   2.034
  2.036   2.037   2.058   2.061   2.068   2.081   2.086   2.093
  2.095   2.105   2.107   2.118   2.127   2.137   2.146   2.150
  2.153   2.174   2.176   2.207   2.208   2.212   2.225   2.240
  2.258   2.264   2.268   2.273   2.295   2.306   2.310   2.322
  2.325   2.328   2.352   2.364   2.364   2.376   2.386   2.406
  2.411   2.417   2.434   2.440   2.451   2.459   2.462   2.469
  2.471   2.478   2.500   2.503   2.508   2.520   2.540   2.548
  2.551   2.564   2.582   2.605   2.623   2.633   2.654   2.657
  2.674   2.676   2.687   2.694   2.704   2.727   2.744   2.750
  2.763   2.779   2.783   2.801   2.805   2.824   2.835   2.839
  2.859   2.881   2.899   2.932   2.939   2.949   2.961   2.992
  3.020   3.036   3.051   3.062   3.078   3.083   3.107   3.130
  3.135   3.146   3.212   3.234   3.273   3.294   3.322   3.921
  3.924   3.979   4.093   4.125   4.148   4.168   4.194   4.197
  4.199   4.223   4.260   4.300   4.323   4.336   4.358   4.410
  4.418   4.431   4.461   4.477   4.494   4.543   4.571   4.580
  4.618   4.653   4.661   4.722   4.786   4.799   4.825   4.861
 --------------------------------------------------------------
 
          Ground-State Mulliken Net Atomic Charges

     Atom                 Charge (a.u.)
  ----------------------------------------
      1 N                    -0.713488
      2 C                    -0.260253
      3 C                     0.652727
      4 O                    -0.524552
      5 H                     0.174639
      6 H                     0.141992
      7 H                     0.314563
      8 H                     0.304130
      9 N                    -0.670792
     10 C                    -0.045542
     11 C                     0.655328
     12 O                    -0.541036
     13 C                    -0.370319
     14 H                     0.175825
     15 H                     0.212640
     16 C                     0.243581
     17 N                    -0.610591
     18 C                     0.190985
     19 H                     0.166946
     20 N                    -0.419152
     21 C                    -0.051114
     22 H                     0.145274
     23 H                     0.361427
     24 H                     0.360220
     25 H                     0.163944
     26 N                    -0.675557
     27 C                    -0.064715
     28 C                     0.651082
     29 O                    -0.525371
     30 H                     0.196621
     31 C                    -0.034135
     32 H                     0.172479
     33 H                     0.131645
     34 O                    -0.641869
     35 H                     0.414622
     36 H                     0.381607
     37 N                    -0.668476
     38 C                    -0.002314
     39 C                     0.626480
     40 O                    -0.533921
     41 H                     0.157875
     42 H                     0.373305
     43 C                    -0.310459
     44 H                     0.201996
     45 H                     0.159233
     46 C                    -0.108354
     47 H                     0.145231
     48 C                    -0.460452
     49 H                     0.151211
     50 H                     0.170960
     51 H                     0.128492
     52 C                    -0.464881
     53 H                     0.146143
     54 H                     0.136873
     55 H                     0.162872
     56 N                    -0.652428
     57 C                    -0.240039
     58 C                     0.643728
     59 O                    -0.450815
     60 H                     0.199892
     61 H                     0.200464
     62 H                     0.372843
     63 O                    -0.580363
     64 H                     0.431108
  ----------------------------------------
  Sum of atomic charges =     0.000000

 -----------------------------------------------------------------
                    Cartesian Multipole Moments
 -----------------------------------------------------------------
    Charge (ESU x 10^10)
                 0.0000
    Dipole Moment (Debye)
         X      -2.1113      Y       5.9632      Z      -0.7222
       Tot       6.3670
    Quadrupole Moments (Debye-Ang)
        XX    -179.9880     XY       8.2987     YY    -185.6784
        XZ     -18.7848     YZ       0.9387     ZZ    -196.0799
    Octopole Moments (Debye-Ang^2)
       XXX    -210.7972    XXY     282.9347    XYY     -33.6267
       YYY     142.6151    XXZ     186.1771    XYZ     -24.2001
       YYZ     -31.3627    XZZ      93.3463    YZZ     -17.1140
       ZZZ     -19.4096
    Hexadecapole Moments (Debye-Ang^3)
      XXXX  -24346.9822   XXXY     919.8628   XXYY   -4270.8146
      XYYY    -226.6226   YYYY   -4206.9637   XXXZ   -1373.5407
      XXYZ     345.8500   XYYZ    -137.4340   YYYZ      -5.6436
      XXZZ   -4742.6822   XYZZ     -23.7055   YYZZ    -839.6703
      XZZZ    -107.1270   YZZZ      37.0131   ZZZZ   -1066.1047
 -----------------------------------------------------------------
 Calculating analytic gradient of the SCF energy
 Gradient of SCF Energy
            1           2           3           4           5           6
    1  -0.0052135  -0.0066689   0.0043155   0.0016250   0.0003687   0.0052702
    2  -0.0033857  -0.0084221   0.0126752  -0.0013989  -0.0022672   0.0016444
    3   0.0016182  -0.0008041   0.0101431   0.0019173   0.0057351  -0.0058101
            7           8           9          10          11          12
    1   0.0002107   0.0088709  -0.0044538  -0.0041779   0.0065015  -0.0014000
    2   0.0020035   0.0056235  -0.0116896   0.0026307  -0.0076179  -0.0025583
    3  -0.0137964   0.0077061  -0.0088516   0.0044319  -0.0047451  -0.0034586
           13          14          15          16          17          18
    1   0.0017882   0.0009490   0.0006277  -0.0080149  -0.0068948   0.0174925
    2   0.0105172   0.0009932  -0.0092050  -0.0147773  -0.0031860   0.0109357
    3   0.0069815   0.0067069  -0.0019168  -0.0346290   0.0251716  -0.0159540
           19          20          21          22          23          24
    1  -0.0023456  -0.0023929  -0.0062451   0.0015344   0.0070236   0.0075217
    2  -0.0022441   0.0036705  -0.0048366   0.0014014   0.0051210   0.0085164
    3   0.0000153   0.0192390   0.0072182   0.0010811  -0.0120933   0.0048845
           25          26          27          28          29          30
    1  -0.0006385  -0.0109612   0.0011549   0.0068987  -0.0019807  -0.0009483
    2   0.0037703   0.0041016  -0.0062859   0.0108918   0.0004851  -0.0048077
    3  -0.0048634   0.0096831  -0.0121528   0.0048759   0.0051016   0.0061593
           31          32          33          34          35          36
    1  -0.0084851   0.0009980  -0.0013422   0.0074636  -0.0009509   0.0070833
    2  -0.0017922   0.0069004   0.0002809  -0.0101357   0.0104462  -0.0035112
    3   0.0057323   0.0017944  -0.0050028   0.0039437  -0.0088663  -0.0056465
           37          38          39          40          41          42
    1  -0.0073780   0.0000380   0.0036397  -0.0002450  -0.0025783  -0.0009659
    2  -0.0136293   0.0115848  -0.0076796  -0.0020413   0.0004449   0.0081030
    3  -0.0086151   0.0111869  -0.0106594   0.0008720  -0.0050207   0.0044981
           43          44          45          46          47          48
    1  -0.0018359   0.0028142   0.0025208   0.0023352   0.0001342  -0.0021248
    2   0.0085797  -0.0060709  -0.0022210  -0.0030139  -0.0044035   0.0026799
    3  -0.0037118  -0.0005122   0.0062474   0.0003759   0.0032712  -0.0013010
           49          50          51          52          53          54
    1  -0.0032160   0.0055797  -0.0014291  -0.0001245  -0.0030600  -0.0018385
    2  -0.0049879  -0.0028590   0.0044608   0.0036402  -0.0045658   0.0024791
    3   0.0008224  -0.0005281  -0.0015492  -0.0032810  -0.0005142  -0.0027497
           55          56          57          58          59          60
    1   0.0022231  -0.0073146  -0.0008235  -0.0075810   0.0033241  -0.0027134
    2  -0.0006119   0.0060141   0.0000208   0.0075988  -0.0049180  -0.0051981
    3   0.0064297   0.0116405  -0.0044363   0.0146593  -0.0127722   0.0004259
           61          62          63          64
    1   0.0026542   0.0067174   0.0065582  -0.0098953
    2   0.0053925  -0.0055902  -0.0021627   0.0044815
    3  -0.0019092  -0.0074586   0.0064611  -0.0034259
 Max gradient component =       3.463E-02
 RMS gradient           =       6.964E-03
 Gradient time:  CPU 1843.79 s  wall 401.90 s
 Geometry Optimization Parameters
   NAtoms,    NIC,     NZ,  NCons,   NDum,   NFix, NCnnct, MaxDiis
       64     460       0       0       0       0       0       0

 Cartesian Hessian Update
 Hessian Updated using BFGS Update


** GEOMETRY OPTIMIZATION IN DELOCALIZED INTERNAL COORDINATES **
   Searching for a Minimum

   Optimization Cycle:   2

                       Coordinates (Angstroms)
     ATOM                X               Y               Z
      1  N         9.1229251945    1.2474123273   -0.0746487458
      2  C         7.8336856821    1.7092748443    0.4177645773
      3  C         6.7209177311    0.8292055034   -0.1000234750
      4  O         6.9515539986   -0.1012043709   -0.8629607434
      5  H         7.8426749076    1.6667112452    1.5196754425
      6  H         7.6271067319    2.7575589166    0.1217947841
      7  H         9.1508766689    1.3649361264   -1.0957207403
      8  H         9.8514700000    1.8553000496    0.3239797258
      9  N         5.4587714835    1.1318327364    0.3027694787
     10  C         4.3058683005    0.3602129053   -0.1135901860
     11  C         3.0415513468    1.1003301587    0.3065183927
     12  O         3.1167526456    2.0967238699    1.0186173222
     13  C         4.3645651313   -1.0628472642    0.4952338000
     14  H         4.2843542615   -0.9802736087    1.5907113610
     15  H         5.3444332295   -1.5092470700    0.2688009760
     16  C         3.3169409202   -2.0025354296   -0.0135437118
     17  N         3.1762972954   -2.3821743772   -1.3065903116
     18  C         2.1247808788   -3.2358911506   -1.3625939956
     19  H         1.7753634086   -3.7028540842   -2.2707832151
     20  N         1.5831317388   -3.4259171922   -0.1620708965
     21  C         2.3246664361   -2.6569321870    0.6780842547
     22  H         2.1366943074   -2.5888813332    1.7391014522
     23  H         3.7581222031   -2.0828310080   -2.0949886594
     24  H         5.3162171468    1.9478387655    0.8984733373
     25  H         4.3207082831    0.3014258102   -1.2172305573
     26  N         1.8483437966    0.6170429257   -0.1237385728
     27  C         0.5878540659    1.2157162451    0.2548379982
     28  C        -0.5347834275    0.2427205128   -0.0670615736
     29  O        -0.3085959914   -0.7696515588   -0.7203484610
     30  H         0.5910156041    1.3638110848    1.3495735640
     31  C         0.3976928033    2.5646650758   -0.4471985294
     32  H         1.2520636565    3.2207540646   -0.2119487095
     33  H         0.3758492197    2.3864700697   -1.5398969939
     34  O        -0.8012057693    3.1561093728   -0.0045947983
     35  H        -0.9288268944    3.9664574267   -0.5368555026
     36  H         1.8220169011   -0.2166639568   -0.7077188508
     37  N        -1.7722516305    0.5311550199    0.4072725459
     38  C        -2.9127805886   -0.3468432225    0.2067814643
     39  C        -4.1452350090    0.3884256872    0.6846091227
     40  O        -4.2437427157    0.7319512475    1.8571151650
     41  H        -2.9953402552   -0.5555013976   -0.8744002664
     42  H        -1.9112193551    1.3982219887    0.9259915868
     43  C        -2.7222122909   -1.6718228444    0.9749396803
     44  H        -1.7677991399   -2.1112103957    0.6494363509
     45  H        -2.6135974726   -1.4428961084    2.0486700789
     46  C        -3.7902129354   -2.7719444684    0.7937828108
     47  H        -3.4061831124   -3.6490765217    1.3464518006
     48  C        -3.9475950336   -3.1804817844   -0.6712627153
     49  H        -4.6343441290   -4.0379993852   -0.7588662197
     50  H        -2.9764542027   -3.4762975144   -1.0995876045
     51  H        -4.3617099412   -2.3544034442   -1.2729230118
     52  C        -5.1503561868   -2.4399090751    1.4120874955
     53  H        -5.8086351042   -3.3233932317    1.3644304618
     54  H        -5.6640770844   -1.6300783985    0.8755511432
     55  H        -5.0396606350   -2.1572710303    2.4706768978
     56  N        -5.1226724234    0.6570761750   -0.2168016963
     57  C        -6.3230101909    1.3440915662    0.1843047850
     58  C        -7.2599600257    1.5173577807   -0.9808476881
     59  O        -6.9967312369    1.1162578491   -2.0945723432
     60  H        -6.8345424130    0.7692840506    0.9767599836
     61  H        -6.0682124125    2.3368960934    0.5943750393
     62  H        -5.0174255520    0.3671393295   -1.1881945765
     63  O        -8.4271416224    2.1414615856   -0.7603996582
     64  H        -8.5978131642    2.4437610703    0.1420100433
   Point Group: c1    Number of degrees of freedom:   186


   Energy is  -1652.351489342

 Hessian Updated using BFGS Update

173 Hessian modes will be used to form the next step
  Hessian Eigenvalues:
     0.001999    0.002001    0.002982    0.004258    0.004570    0.004731
     0.005205    0.006772    0.006997    0.007129    0.007445    0.007603
     0.007627    0.007919    0.008290    0.009235    0.010583    0.011152
     0.011208    0.012021    0.012279    0.012512    0.012535    0.012982
     0.013144    0.015656    0.017151    0.020080    0.020169    0.020450
     0.020672    0.022337    0.022641    0.022720    0.023025    0.023978
     0.024484    0.028862    0.031346    0.039564    0.044016    0.044884
     0.045269    0.046159    0.046606    0.047668    0.049647    0.049795
     0.050040    0.050217    0.050837    0.051003    0.051789    0.053031
     0.054566    0.056259    0.057604    0.057925    0.058613    0.064238
     0.064984    0.065814    0.065979    0.066115    0.092095    0.097546
     0.098299    0.100901    0.116188    0.128380    0.129583    0.131807
     0.133380    0.138707    0.151279    0.159969    0.159980    0.159998
     0.159999    0.159999    0.160000    0.160733    0.171681    0.172240
     0.172352    0.173374    0.177738    0.181009    0.184883    0.186719
     0.216996    0.219979    0.220002    0.220005    0.220102    0.220236
     0.220480    0.220819    0.222423    0.228444    0.238861    0.244387
     0.249938    0.249991    0.249996    0.249997    0.249999    0.250000
     0.265281    0.269768    0.272187    0.274894    0.281334    0.289702
     0.290529    0.290908    0.302536    0.307942    0.313243    0.313555
     0.320879    0.322171    0.322645    0.323108    0.323546    0.323610
     0.323769    0.324153    0.324447    0.324558    0.324808    0.325066
     0.325104    0.325245    0.325369    0.325712    0.325983    0.327606
     0.328912    0.331304    0.333733    0.357624    0.357821    0.361603
     0.365704    0.368707    0.371062    0.382620    0.403978    0.405138
     0.407860    0.424969    0.426927    0.427131    0.434442    0.445598
     0.456180    0.485616    0.492898    0.512734    0.517389    0.521985
     0.525161    0.526018    0.538937    0.552476    0.558092    0.564528
     0.934729    0.937087    0.938672    0.940059    0.946401

 Minimum Search - Taking Simple RFO Step
 Searching for Lamda that Minimizes Along All modes
 Value Taken    Lamda =  -0.02916810
 Calculated Step too Large.  Step scaled by  0.640125
 Step Taken.  Stepsize is  0.300000

                             Maximum     Tolerance    Cnvgd?
         Gradient           0.025949      0.000300      NO
         Displacement       0.061837      0.001200      NO
         Energy change     -0.034493      0.000001      NO


 New Cartesian Coordinates Obtained by Inverse Iteration

 Displacement from previous Coordinates is:  2.961391
 ----------------------------------------------------------------
             Standard Nuclear Orientation (Angstroms)
    I     Atom           X                Y                Z
 ----------------------------------------------------------------
    1      N       9.0432970393     1.1159945365    -0.2715859902
    2      C       7.7811905327     1.6204289566     0.2391455193
    3      C       6.6392819116     0.7343070707    -0.2134458063
    4      O       6.8059791528    -0.2133054767    -0.9707648793
    5      H       7.8275404688     1.6196233488     1.3345044595
    6      H       7.5502317108     2.6576695161    -0.0695157963
    7      H       9.0368930706     1.1745707458    -1.2854217928
    8      H       9.7880781023     1.7274436652     0.0563782222
    9      N       5.4148346782     1.0855385758     0.2498737120
   10      C       4.2310124124     0.3470174145    -0.0955656527
   11      C       3.0295602881     1.1672933995     0.3553882526
   12      O       3.1633171887     2.1626586536     1.0630811907
   13      C       4.2611345421    -1.0591953638     0.5509884471
   14      H       4.2324159712    -0.9409261143     1.6386403674
   15      H       5.2251926670    -1.5122012554     0.2963594115
   16      C       3.1678504143    -1.9815994695     0.1424565671
   17      N       2.9553300123    -2.4036226169    -1.1411960335
   18      C       1.8792796121    -3.2354051297    -1.1206513405
   19      H       1.4914690967    -3.7145348904    -2.0046456035
   20      N       1.3912132276    -3.3767624290     0.0939336704
   21      C       2.1858003223    -2.5960984484     0.8814836874
   22      H       2.0311484904    -2.5033834474     1.9455225053
   23      H       3.5051224159    -2.1527174909    -1.9523930424
   24      H       5.2930372365     1.9093913379     0.8261597133
   25      H       4.2001394249     0.2479662149    -1.1909363931
   26      N       1.8264420672     0.7285359117    -0.0634382947
   27      C       0.5886384200     1.3308794203     0.3475697490
   28      C      -0.5103788492     0.3477659053    -0.0337963104
   29      O      -0.2637591759    -0.6169034649    -0.7513107300
   30      H       0.6006406044     1.4505890274     1.4396832749
   31      C       0.4013044680     2.7076940137    -0.2844863841
   32      H       1.2672019797     3.3283863817    -0.0239596508
   33      H       0.3648407155     2.5932624287    -1.3794866612
   34      O      -0.7898229897     3.2726849180     0.2262338114
   35      H      -0.9320413333     4.1134231594    -0.2303641349
   36      H       1.7452494251    -0.0956370289    -0.6473089432
   37      N      -1.7408237403     0.5896836928     0.4567022462
   38      C      -2.8486847532    -0.3129686908     0.2054174334
   39      C      -4.1006458171     0.3876269045     0.6871191647
   40      O      -4.2349549774     0.7143319428     1.8602031509
   41      H      -2.9018299416    -0.4905533440    -0.8771808022
   42      H      -1.9003089624     1.4226053434     1.0079884637
   43      C      -2.6295841414    -1.6467057254     0.9334231797
   44      H      -1.6515379607    -2.0220062135     0.6150993131
   45      H      -2.5558690094    -1.4363064601     2.0074480370
   46      C      -3.6464643458    -2.7736697811     0.6949493104
   47      H      -3.2313579166    -3.6456158217     1.2213981853
   48      C      -3.7574289462    -3.1381442472    -0.7824895213
   49      H      -4.3974574471    -4.0172800495    -0.9176630972
   50      H      -2.7737604078    -3.3667256364    -1.2069045572
   51      H      -4.1998465834    -2.3192152017    -1.3642514838
   52      C      -5.0273880839    -2.5249972981     1.2984181705
   53      H      -5.6417014180    -3.4295129993     1.2133011376
   54      H      -5.5666352439    -1.7259969422     0.7798935622
   55      H      -4.9566638810    -2.2647593281     2.3591382270
   56      N      -5.0524398377     0.6409843599    -0.2396731612
   57      C      -6.2829642720     1.2705475230     0.1362100157
   58      C      -7.1654134232     1.4231288705    -1.0741255580
   59      O      -6.8424766515     1.0611600014    -2.1788288168
   60      H      -6.8003254663     0.6703977141     0.8994427155
   61      H      -6.0918310606     2.2568604525     0.5815561415
   62      H      -4.9312961550     0.3842757374    -1.2100149733
   63      O      -8.3595490311     1.9959058135    -0.8706872664
   64      H      -8.4984878135     2.2346734743     0.0562015746
 ----------------------------------------------------------------
 Molecular Point Group                 C1    NOp =  1
 Largest Abelian Subgroup              C1    NOp =  1
 Nuclear Repulsion Energy =  3529.6513350683 hartrees
 There are      125 alpha and      125 beta electrons
 Applying Cartesian multipole field
    Component          Value
    ---------          -----
     (2,0,0)        1.00000E-12
     (0,2,0)        2.00000E-11
     (0,0,2)       -3.00000E-11
 Nucleus-field energy     =     0.0000000611 hartrees
 Requested basis set is 6-31G(d)
 There are 194 shells and 557 basis functions
 A cutoff of  1.0D-11 yielded   8622 shell pairs
 There are     72949 function pairs
 Smallest overlap matrix eigenvalue = 1.13E-03
 Guess MOs from SCF MO coefficient file

 -----------------------------------------------------------------------
  General SCF calculation program by
  Eric Jon Sundstrom, Paul Horn, Yuezhi Mao, Dmitri Zuev, Alec White,
  David Stuck, Shaama M.S., Shane Yost, Joonho Lee, David Small,
  Daniel Levine, Susi Lehtola, Hugh Burton, Evgeny Epifanovsky
 -----------------------------------------------------------------------
 Exchange:  B97M-V      Correlation:  B97M-V
 Using SG-2 standard quadrature grid
 Nonlocal Correlation:  VV10 with C = 0.0100 and b = 6.00 and scale = 1.00000
 Grid used for NLC:  SG-1 standard quadrature
 using 8 threads for integral computing
 -------------------------------------------------------
 OpenMP Integral computing Module                
 Release: version 1.0, May 2013, Q-Chem Inc. Pittsburgh 
 -------------------------------------------------------
 -------------------------------------------------------
 OpenMP BLAS3 based DFT computing Module                
 Release: version 1.0, May 2013, Q-Chem Inc. Pittsburgh 
 -------------------------------------------------------
 -------------------------------------------------------
 OpenMP BLAS3 based DFT computing Module                
 Release: version 1.0, May 2013, Q-Chem Inc. Pittsburgh 
 -------------------------------------------------------
 -------------------------------------------------------
 OpenMP BLAS3 based DFT computing Module                
 Release: version 1.0, May 2013, Q-Chem Inc. Pittsburgh 
 -------------------------------------------------------
 Nonlocal correlation = 0.936394290576
 A restricted SCF calculation will be
 performed using DIIS
 SCF converges when DIIS error is below 1.0e-08
 ---------------------------------------
  Cycle       Energy         DIIS error
 ---------------------------------------
 Nonlocal correlation = 9.368539285002e-01
    1   -1652.3291891499      7.55e-04  
 Nonlocal correlation = 9.364551167676e-01
    2   -1652.3642068920      1.31e-04  
 Nonlocal correlation = 9.366485555778e-01
    3   -1652.3631556231      2.17e-04  
 Nonlocal correlation = 9.366686727858e-01
    4   -1652.3647172885      4.85e-05  
 Nonlocal correlation = 9.366697947986e-01
    5   -1652.3647954463      1.54e-05  
 Nonlocal correlation = 9.366651216490e-01
    6   -1652.3648032350      4.25e-06  
 Nonlocal correlation = 9.366656616079e-01
    7   -1652.3648037441      1.89e-06  
 Nonlocal correlation = 9.366658982925e-01
    8   -1652.3648038512      7.68e-07  
 Nonlocal correlation = 9.366659610982e-01
    9   -1652.3648038697      2.01e-07  
 Nonlocal correlation = 9.366659476958e-01
   10   -1652.3648038710      6.28e-08  
 Nonlocal correlation = 9.366659356288e-01
   11   -1652.3648038712      2.16e-08  
   12   -1652.3648038712      6.48e-09  Convergence criterion met
 ---------------------------------------
 SCF time:   CPU 15159.37s  wall 1899.00s 
 SCF   energy in the final basis set =    -1652.3648038712
 Total energy in the final basis set =    -1652.3648038712
 
 --------------------------------------------------------------
 
                    Orbital Energies (a.u.)
 --------------------------------------------------------------
 
 Alpha MOs
 -- Occupied --
-19.236 -19.180 -19.172 -19.138 -19.137 -19.135 -19.120 -14.395
-14.387 -14.372 -14.371 -14.361 -14.318 -14.309 -10.341 -10.291
-10.289 -10.287 -10.275 -10.258 -10.242 -10.240 -10.239 -10.234
-10.223 -10.213 -10.206 -10.196 -10.184 -10.179 -10.171 -10.165
-10.164  -1.121  -1.043  -1.040  -1.036  -1.033  -1.029  -1.019
 -0.996  -0.932  -0.923  -0.918  -0.911  -0.866  -0.852  -0.792
 -0.781  -0.759  -0.748  -0.719  -0.711  -0.669  -0.656  -0.648
 -0.642  -0.625  -0.615  -0.586  -0.583  -0.571  -0.559  -0.558
 -0.552  -0.551  -0.530  -0.515  -0.505  -0.499  -0.489  -0.482
 -0.475  -0.468  -0.463  -0.459  -0.455  -0.438  -0.433  -0.429
 -0.427  -0.427  -0.415  -0.415  -0.411  -0.408  -0.401  -0.401
 -0.399  -0.398  -0.388  -0.381  -0.377  -0.373  -0.371  -0.370
 -0.367  -0.365  -0.361  -0.358  -0.347  -0.345  -0.343  -0.340
 -0.328  -0.320  -0.316  -0.312  -0.297  -0.294  -0.292  -0.272
 -0.262  -0.251  -0.249  -0.246  -0.238  -0.235  -0.233  -0.231
 -0.228  -0.224  -0.216  -0.207  -0.189
 -- Virtual --
 -0.035  -0.015  -0.012  -0.001   0.012   0.015   0.021   0.041
  0.048   0.050   0.059   0.065   0.068   0.081   0.088   0.096
  0.103   0.107   0.114   0.118   0.127   0.130   0.133   0.135
  0.139   0.143   0.145   0.148   0.149   0.156   0.157   0.160
  0.163   0.168   0.170   0.172   0.178   0.181   0.183   0.186
  0.196   0.201   0.205   0.211   0.215   0.219   0.219   0.223
  0.226   0.231   0.240   0.249   0.252   0.262   0.270   0.279
  0.286   0.293   0.315   0.318   0.332   0.339   0.342   0.351
  0.365   0.391   0.393   0.414   0.430   0.438   0.451   0.482
  0.497   0.505   0.509   0.514   0.515   0.516   0.524   0.529
  0.533   0.539   0.546   0.556   0.561   0.567   0.568   0.573
  0.579   0.587   0.591   0.597   0.597   0.601   0.619   0.625
  0.630   0.635   0.644   0.646   0.653   0.657   0.660   0.666
  0.669   0.678   0.683   0.689   0.694   0.696   0.706   0.707
  0.715   0.722   0.728   0.731   0.740   0.745   0.748   0.756
  0.761   0.767   0.770   0.776   0.783   0.793   0.799   0.805
  0.810   0.812   0.816   0.818   0.819   0.824   0.827   0.832
  0.834   0.838   0.844   0.849   0.854   0.856   0.858   0.868
  0.871   0.877   0.880   0.885   0.889   0.893   0.896   0.898
  0.905   0.909   0.909   0.914   0.917   0.922   0.924   0.926
  0.929   0.933   0.937   0.942   0.945   0.952   0.961   0.961
  0.968   0.974   0.983   0.984   0.994   0.996   1.004   1.013
  1.014   1.027   1.037   1.044   1.045   1.054   1.063   1.078
  1.081   1.091   1.101   1.110   1.115   1.119   1.131   1.142
  1.158   1.163   1.176   1.183   1.195   1.216   1.227   1.231
  1.238   1.249   1.262   1.276   1.281   1.293   1.308   1.317
  1.324   1.329   1.348   1.353   1.360   1.368   1.375   1.381
  1.382   1.390   1.401   1.411   1.417   1.428   1.437   1.440
  1.455   1.476   1.487   1.496   1.511   1.514   1.521   1.532
  1.543   1.550   1.558   1.566   1.571   1.587   1.601   1.609
  1.619   1.624   1.631   1.646   1.671   1.676   1.683   1.715
  1.728   1.738   1.739   1.746   1.759   1.763   1.773   1.776
  1.780   1.782   1.790   1.793   1.797   1.805   1.816   1.821
  1.829   1.831   1.843   1.845   1.855   1.863   1.866   1.869
  1.882   1.889   1.891   1.896   1.899   1.908   1.912   1.917
  1.920   1.922   1.932   1.936   1.954   1.962   1.973   1.983
  1.985   1.994   1.998   2.007   2.013   2.022   2.034   2.037
  2.038   2.045   2.057   2.061   2.072   2.082   2.087   2.097
  2.098   2.106   2.111   2.125   2.135   2.144   2.150   2.156
  2.160   2.175   2.180   2.215   2.216   2.220   2.229   2.242
  2.261   2.266   2.271   2.283   2.295   2.313   2.320   2.323
  2.329   2.334   2.355   2.365   2.372   2.382   2.386   2.408
  2.416   2.425   2.437   2.441   2.453   2.458   2.469   2.475
  2.478   2.485   2.506   2.511   2.516   2.529   2.543   2.550
  2.559   2.571   2.586   2.606   2.620   2.645   2.663   2.664
  2.676   2.677   2.695   2.702   2.709   2.739   2.745   2.760
  2.765   2.784   2.789   2.801   2.804   2.824   2.836   2.837
  2.863   2.886   2.897   2.936   2.940   2.954   2.970   2.998
  3.023   3.042   3.053   3.069   3.084   3.088   3.111   3.129
  3.133   3.150   3.218   3.250   3.284   3.305   3.331   3.921
  3.927   3.981   4.094   4.130   4.154   4.178   4.201   4.203
  4.209   4.224   4.270   4.305   4.329   4.345   4.365   4.410
  4.420   4.434   4.462   4.481   4.493   4.552   4.582   4.590
  4.629   4.659   4.667   4.729   4.795   4.808   4.831   4.867
 --------------------------------------------------------------
 
          Ground-State Mulliken Net Atomic Charges

     Atom                 Charge (a.u.)
  ----------------------------------------
      1 N                    -0.717102
      2 C                    -0.260418
      3 C                     0.652158
      4 O                    -0.527016
      5 H                     0.175393
      6 H                     0.141547
      7 H                     0.317112
      8 H                     0.306327
      9 N                    -0.668463
     10 C                    -0.049861
     11 C                     0.657695
     12 O                    -0.546888
     13 C                    -0.374157
     14 H                     0.175958
[...]
     64  H        -8.4688878380    1.8860266240   -0.0066364364
   Point Group: c1    Number of degrees of freedom:   186


   Energy is  -1652.371324884

 Hessian Updated using BFGS Update

180 Hessian modes will be used to form the next step
  Hessian Eigenvalues:
     0.001982    0.002006    0.002122    0.002983    0.004547    0.004710
     0.005068    0.005406    0.006786    0.007031    0.007139    0.007565
     0.007604    0.007860    0.008178    0.008303    0.009219    0.011049
     0.011153    0.011830    0.012051    0.012535    0.012589    0.013007
     0.013143    0.015414    0.015592    0.018450    0.019536    0.020461
     0.020682    0.021055    0.022335    0.022641    0.022726    0.022975
     0.024445    0.025670    0.028939    0.031427    0.040393    0.044265
     0.045208    0.045574    0.046239    0.046441    0.047667    0.049382
     0.049925    0.050227    0.051020    0.051119    0.051890    0.052416
     0.054570    0.056258    0.057582    0.057727    0.057963    0.058710
     0.065005    0.065844    0.066001    0.066250    0.069276    0.092236
     0.097118    0.098125    0.100908    0.116330    0.128355    0.130616
     0.132136    0.133391    0.138406    0.149016    0.159980    0.159995
     0.159999    0.159999    0.160000    0.160000    0.160015    0.160227
     0.160391    0.162451    0.172117    0.172801    0.174853    0.176673
     0.177799    0.183339    0.189221    0.195157    0.211194    0.220005
     0.220017    0.220166    0.220464    0.220827    0.222938    0.227619
     0.229983    0.238339    0.242032    0.247299    0.249953    0.249991
     0.249996    0.249999    0.250000    0.250000    0.250664    0.253761
     0.264021    0.269037    0.272059    0.275860    0.284227    0.289617
     0.290430    0.290967    0.304633    0.308208    0.313136    0.314688
     0.321579    0.322591    0.322716    0.323199    0.323605    0.323712
     0.324036    0.324147    0.324445    0.324562    0.324809    0.325088
     0.325116    0.325259    0.325374    0.325740    0.326025    0.327606
     0.328890    0.331652    0.337830    0.357665    0.357856    0.361436
     0.366197    0.368253    0.371829    0.385198    0.404824    0.406086
     0.418369    0.426916    0.427095    0.432159    0.444989    0.447804
     0.456874    0.490834    0.493257    0.510494    0.517338    0.522172
     0.524829    0.526014    0.538956    0.551272    0.555943    0.576753
     0.752063    0.934778    0.937424    0.939266    0.944142    0.948432

 Minimum Search - Taking Simple RFO Step
 Searching for Lamda that Minimizes Along All modes
 Value Taken    Lamda =  -0.00488159
 Calculated Step too Large.  Step scaled by  0.470501
 Step Taken.  Stepsize is  0.300000

                             Maximum     Tolerance    Cnvgd?
         Gradient           0.006561      0.000300      NO
         Displacement       0.096584      0.001200      NO
         Energy change     -0.002661      0.000001      NO


 New Cartesian Coordinates Obtained by Inverse Iteration

 Displacement from previous Coordinates is:  2.142423
 ----------------------------------------------------------------
             Standard Nuclear Orientation (Angstroms)
    I     Atom           X                Y                Z
 ----------------------------------------------------------------
    1      N       8.9542925020     0.6347777558    -0.5413651362
    2      C       7.7780353000     1.2984256301    -0.0265036467
    3      C       6.5395370647     0.4924115370    -0.3720455475
    4      O       6.5567105962    -0.4685065748    -1.1286144290
    5      H       7.8683033861     1.3714966651     1.0603935346
    6      H       7.6011641377     2.3312345874    -0.3813861377
    7      H       8.8698708760     0.5420810998    -1.5436854063
    8      H       9.7622901887     1.2194522846    -0.3699858066
    9      N       5.3989230162     0.9522075341     0.1940544070
   10      C       4.1316229101     0.3329701179    -0.0642783971
   11      C       3.0548374960     1.3057564324     0.3894650492
   12      O       3.2947913816     2.2301787524     1.1637458261
   13      C       4.0168020798    -1.0182180924     0.6848957751
   14      H       4.0655543871    -0.8112315096     1.7558881180
   15      H       4.9173990456    -1.5806034506     0.4255616983
   16      C       2.7858737223    -1.7956235850     0.4213093371
   17      N       2.4528882220    -2.2978505019    -0.8227206709
   18      C       1.2608948368    -2.9485992480    -0.7003362962
   19      H       0.7821387362    -3.4266037341    -1.5395897495
   20      N       0.8057051040    -2.9051365177     0.5237366176
   21      C       1.7436208196    -2.1852133623     1.2210191283
   22      H       1.6243714039    -1.9863577103     2.2744119371
   23      H       3.0090496905    -2.2259348023    -1.6567443543
   24      H       5.3597631619     1.7864648003     0.7625501854
   25      H       4.0364202342     0.1552150110    -1.1420385439
   26      N       1.8381895930     1.0117854623    -0.0898193710
   27      C       0.6112666802     1.5654911676     0.4122660140
   28      C      -0.4750775472     0.6273007737    -0.1136169916
   29      O      -0.2256160328    -0.1820966670    -1.0054113211
   30      H       0.6249769658     1.5570720554     1.5069359383
   31      C       0.3989176336     3.0084290945    -0.0177155439
   32      H       1.2820064474     3.5774819307     0.2851316259
   33      H       0.3024846280     3.0588449688    -1.1092945224
   34      O      -0.7717697633     3.4496152723     0.6507385653
   35      H      -0.9409844722     4.3581138516     0.3857538500
   36      H       1.6873498320     0.2184767827    -0.7018956924
   37      N      -1.6759637780     0.7257424878     0.4706977732
   38      C      -2.7207213912    -0.2348807181     0.1595042768
   39      C      -4.0183888483     0.3805540920     0.6395854994
   40      O      -4.1804910918     0.7227386062     1.8036521874
   41      H      -2.7294156265    -0.3799852924    -0.9233458195
   42      H      -1.8585887185     1.4667249164     1.1298085352
   43      C      -2.4126242877    -1.5562372727     0.8707703966
   44      H      -1.3769720957    -1.8020601911     0.6250486106
   45      H      -2.4519349386    -1.3553614714     1.9450097384
   46      C      -3.2814191465    -2.7664792490     0.5301177214
   47      H      -2.7936708260    -3.6043692865     1.0430178362
   48      C      -3.2665742962    -3.0776701915    -0.9604160351
   49      H      -3.7709215942    -4.0234868453    -1.1698147385
   50      H      -2.2453195696    -3.1445086532    -1.3403307002
   51      H      -3.7870941090    -2.3069307398    -1.5391246289
   52      C      -4.7072925082    -2.6928290629     1.0623793335
   53      H      -5.2092999122    -3.6548223033     0.9344251467
   54      H      -5.3055056696    -1.9498058867     0.5275717095
   55      H      -4.7289256983    -2.4365437406     2.1225106949
   56      N      -4.9795265269     0.5365125776    -0.2964131681
   57      C      -6.2667821044     1.0362167165     0.0722756628
   58      C      -7.1445404447     1.0905749522    -1.1539526729
   59      O      -6.7755398045     0.7695346405    -2.2518623648
   60      H      -6.7255733365     0.3998789309     0.8408996216
   61      H      -6.1860614287     2.0326522283     0.5225693291
   62      H      -4.8579566401     0.2883292218    -1.2653139292
   63      O      -8.3957500318     1.5352867932    -0.9414619914
   64      H      -8.5088118070     1.7264729961     0.0006018446
 ----------------------------------------------------------------
 Molecular Point Group                 C1    NOp =  1
 Largest Abelian Subgroup              C1    NOp =  1
 Nuclear Repulsion Energy =  3581.7724705940 hartrees
 There are      125 alpha and      125 beta electrons
 Applying Cartesian multipole field
    Component          Value
    ---------          -----
     (2,0,0)        1.00000E-12
     (0,2,0)        2.00000E-11
     (0,0,2)       -3.00000E-11
 Nucleus-field energy     =     0.0000000546 hartrees
 Requested basis set is 6-31G(d)
 There are 194 shells and 557 basis functions
 A cutoff of  1.0D-11 yielded   8920 shell pairs
 There are     75719 function pairs
 Smallest overlap matrix eigenvalue = 1.11E-03
 Guess MOs from SCF MO coefficient file

 -----------------------------------------------------------------------
  General SCF calculation program by
  Eric Jon Sundstrom, Paul Horn, Yuezhi Mao, Dmitri Zuev, Alec White,
  David Stuck, Shaama M.S., Shane Yost, Joonho Lee, David Small,
  Daniel Levine, Susi Lehtola, Hugh Burton, Evgeny Epifanovsky
 -----------------------------------------------------------------------
 Exchange:  B97M-V      Correlation:  B97M-V
 Using SG-2 standard quadrature grid
 Nonlocal Correlation:  VV10 with C = 0.0100 and b = 6.00 and scale = 1.00000
 Grid used for NLC:  SG-1 standard quadrature
 using 8 threads for integral computing
 -------------------------------------------------------
 OpenMP Integral computing Module                
 Release: version 1.0, May 2013, Q-Chem Inc. Pittsburgh 
 -------------------------------------------------------
 -------------------------------------------------------
 OpenMP BLAS3 based DFT computing Module                
 Release: version 1.0, May 2013, Q-Chem Inc. Pittsburgh 
 -------------------------------------------------------
 -------------------------------------------------------
 OpenMP BLAS3 based DFT computing Module                
 Release: version 1.0, May 2013, Q-Chem Inc. Pittsburgh 
 -------------------------------------------------------
 -------------------------------------------------------
 OpenMP BLAS3 based DFT computing Module                
 Release: version 1.0, May 2013, Q-Chem Inc. Pittsburgh 
 -------------------------------------------------------
 Nonlocal correlation = 0.934283427503
 A restricted SCF calculation will be
 performed using DIIS
 SCF converges when DIIS error is below 1.0e-08
 ---------------------------------------
  Cycle       Energy         DIIS error
 ---------------------------------------
 Nonlocal correlation = 9.342638900359e-01
    1   -1652.3486392128      5.81e-04  
 Nonlocal correlation = 9.342666006470e-01
    2   -1652.3726474070      6.47e-05  
 Nonlocal correlation = 9.342742114372e-01
    3   -1652.3724721828      9.37e-05  
 Nonlocal correlation = 9.342639143777e-01
    4   -1652.3727568530      3.32e-05  
 Nonlocal correlation = 9.342676331396e-01
    5   -1652.3727955505      8.71e-06  
 Nonlocal correlation = 9.342676046516e-01
    6   -1652.3727979390      2.62e-06  
 Nonlocal correlation = 9.342672983192e-01
    7   -1652.3727980645      1.72e-06  
 Nonlocal correlation = 9.342673389108e-01
    8   -1652.3727981584      3.69e-07  
 Nonlocal correlation = 9.342673362357e-01
    9   -1652.3727981627      1.12e-07  
 Nonlocal correlation = 9.342673391749e-01
   10   -1652.3727981631      3.39e-08  
 Nonlocal correlation = 9.342673345708e-01
   11   -1652.3727981631      1.38e-08  
   12   -1652.3727981631      4.89e-09  Convergence criterion met
 ---------------------------------------
 SCF time:   CPU 17572.90s  wall 2200.00s 
 SCF   energy in the final basis set =    -1652.3727981631
 Total energy in the final basis set =    -1652.3727981631
 
 --------------------------------------------------------------
 
                    Orbital Energies (a.u.)
 --------------------------------------------------------------
 
 Alpha MOs
 -- Occupied --
-19.235 -19.179 -19.173 -19.138 -19.138 -19.137 -19.123 -14.395
-14.385 -14.371 -14.369 -14.361 -14.317 -14.315 -10.340 -10.290
-10.287 -10.287 -10.276 -10.255 -10.241 -10.236 -10.236 -10.229
-10.229 -10.212 -10.211 -10.198 -10.185 -10.180 -10.165 -10.163
-10.162  -1.121  -1.044  -1.041  -1.037  -1.032  -1.030  -1.021
 -0.997  -0.933  -0.925  -0.920  -0.913  -0.868  -0.856  -0.792
 -0.783  -0.759  -0.749  -0.720  -0.711  -0.671  -0.657  -0.650
 -0.640  -0.622  -0.611  -0.589  -0.586  -0.572  -0.562  -0.559
 -0.555  -0.550  -0.532  -0.515  -0.506  -0.501  -0.490  -0.481
 -0.476  -0.468  -0.461  -0.458  -0.454  -0.438  -0.432  -0.430
 -0.428  -0.425  -0.417  -0.415  -0.411  -0.407  -0.403  -0.402
 -0.400  -0.399  -0.390  -0.381  -0.378  -0.376  -0.373  -0.371
 -0.368  -0.366  -0.359  -0.357  -0.346  -0.345  -0.343  -0.339
 -0.327  -0.321  -0.317  -0.313  -0.297  -0.293  -0.291  -0.273
 -0.262  -0.254  -0.248  -0.247  -0.242  -0.239  -0.237  -0.233
 -0.230  -0.223  -0.218  -0.207  -0.194
 -- Virtual --
 -0.034  -0.014  -0.010  -0.003   0.013   0.014   0.021   0.042
  0.047   0.051   0.057   0.069   0.072   0.081   0.089   0.098
  0.101   0.109   0.110   0.121   0.129   0.130   0.135   0.137
  0.144   0.146   0.150   0.150   0.152   0.155   0.159   0.161
  0.161   0.168   0.173   0.177   0.181   0.184   0.185   0.187
  0.197   0.203   0.206   0.215   0.218   0.221   0.223   0.228
  0.229   0.235   0.240   0.249   0.252   0.265   0.274   0.284
  0.286   0.293   0.318   0.325   0.332   0.338   0.339   0.353
  0.368   0.386   0.392   0.413   0.428   0.441   0.444   0.472
  0.496   0.504   0.508   0.510   0.513   0.516   0.523   0.526
  0.532   0.544   0.547   0.556   0.562   0.568   0.571   0.576
  0.580   0.588   0.590   0.595   0.598   0.600   0.618   0.626
  0.630   0.636   0.643   0.652   0.655   0.657   0.663   0.666
  0.678   0.683   0.687   0.690   0.695   0.701   0.703   0.711
  0.714   0.727   0.731   0.734   0.739   0.746   0.750   0.757
  0.760   0.767   0.768   0.781   0.793   0.798   0.801   0.804
  0.812   0.814   0.816   0.820   0.820   0.826   0.828   0.832
  0.838   0.842   0.847   0.851   0.858   0.862   0.867   0.871
  0.878   0.881   0.885   0.891   0.892   0.896   0.898   0.907
  0.909   0.910   0.917   0.920   0.924   0.925   0.928   0.929
  0.931   0.941   0.944   0.947   0.949   0.951   0.965   0.965
  0.974   0.979   0.983   0.988   0.995   0.999   1.007   1.017
  1.021   1.036   1.041   1.044   1.047   1.059   1.064   1.077
  1.091   1.099   1.109   1.115   1.123   1.130   1.147   1.156
  1.165   1.175   1.189   1.193   1.199   1.209   1.218   1.228
  1.233   1.249   1.273   1.277   1.287   1.293   1.302   1.322
  1.324   1.341   1.349   1.357   1.364   1.372   1.381   1.386
  1.392   1.397   1.401   1.403   1.423   1.434   1.441   1.452
  1.464   1.481   1.484   1.497   1.512   1.518   1.528   1.536
  1.546   1.549   1.567   1.572   1.586   1.594   1.606   1.613
  1.625   1.630   1.644   1.674   1.678   1.683   1.686   1.708
  1.730   1.735   1.741   1.746   1.764   1.765   1.770   1.773
  1.781   1.787   1.788   1.794   1.802   1.811   1.818   1.823
  1.828   1.836   1.843   1.850   1.854   1.868   1.871   1.878
  1.880   1.888   1.890   1.895   1.904   1.909   1.912   1.925
  1.927   1.931   1.940   1.944   1.964   1.972   1.978   1.983
  1.993   1.996   2.000   2.015   2.017   2.021   2.032   2.042
  2.045   2.050   2.052   2.061   2.076   2.079   2.093   2.099
  2.105   2.111   2.115   2.127   2.142   2.147   2.155   2.159
  2.168   2.175   2.182   2.220   2.223   2.226   2.229   2.237
  2.259   2.268   2.272   2.289   2.302   2.310   2.323   2.329
  2.329   2.343   2.354   2.365   2.380   2.390   2.396   2.414
  2.423   2.436   2.436   2.442   2.452   2.457   2.469   2.474
  2.482   2.497   2.512   2.518   2.523   2.540   2.546   2.555
  2.562   2.579   2.587   2.597   2.617   2.648   2.669   2.670
  2.685   2.692   2.701   2.713   2.721   2.746   2.747   2.769
  2.777   2.781   2.792   2.803   2.813   2.828   2.834   2.846
  2.871   2.892   2.894   2.927   2.943   2.954   2.974   3.002
  3.028   3.047   3.054   3.070   3.087   3.095   3.113   3.122
  3.129   3.151   3.219   3.251   3.289   3.303   3.330   3.918
  3.930   3.980   4.111   4.138   4.168   4.195   4.202   4.210
  4.218   4.251   4.295   4.308   4.339   4.365   4.374   4.423
  4.429   4.436   4.482   4.486   4.498   4.557   4.592   4.617
  4.652   4.661   4.687   4.730   4.804   4.829   4.848   4.888
 --------------------------------------------------------------
 
          Ground-State Mulliken Net Atomic Charges

     Atom                 Charge (a.u.)
  ----------------------------------------
      1 N                    -0.722832
      2 C                    -0.254632
      3 C                     0.650941
      4 O                    -0.530455
      5 H                     0.173688
      6 H                     0.141842
      7 H                     0.320112
      8 H                     0.307670
      9 N                    -0.666063
     10 C                    -0.052851
     11 C                     0.655457
     12 O                    -0.550231
     13 C                    -0.375271
     14 H                     0.178706
     15 H                     0.208660
     16 C                     0.275227
     17 N                    -0.625975
     18 C                     0.230395
     19 H                     0.166827
     20 N                    -0.429935
     21 C                    -0.080122
     22 H                     0.147821
     23 H                     0.360093
     24 H                     0.363890
     25 H                     0.165975
     26 N                    -0.673579
     27 C                    -0.061175
     28 C                     0.649393
     29 O                    -0.546380
     30 H                     0.193850
     31 C                    -0.038573
     32 H                     0.175696
     33 H                     0.140362
     34 O                    -0.646760
     35 H                     0.417378
     36 H                     0.385012
     37 N                    -0.652677
     38 C                    -0.036908
     39 C                     0.641452
     40 O                    -0.538357
     41 H                     0.170271
     42 H                     0.377783
     43 C                    -0.319006
     44 H                     0.218696
     45 H                     0.156055
     46 C                    -0.103933
     47 H                     0.153454
     48 C                    -0.465979
     49 H                     0.152730
     50 H                     0.165952
     51 H                     0.129747
     52 C                    -0.472377
     53 H                     0.151409
     54 H                     0.133559
     55 H                     0.163328
     56 N                    -0.652748
     57 C                    -0.258847
     58 C                     0.644725
     59 O                    -0.446685
     60 H                     0.199310
     61 H                     0.203949
     62 H                     0.376549
     63 O                    -0.574770
     64 H                     0.429156
  ----------------------------------------
  Sum of atomic charges =     0.000000

 -----------------------------------------------------------------
                    Cartesian Multipole Moments
 -----------------------------------------------------------------
    Charge (ESU x 10^10)
                 0.0000
    Dipole Moment (Debye)
         X      -2.0749      Y       4.6238      Z      -0.4938
       Tot       5.0920
    Quadrupole Moments (Debye-Ang)
        XX    -179.3168     XY       7.9173     YY    -182.2219
        XZ     -18.4941     YZ       1.8493     ZZ    -202.6775
    Octopole Moments (Debye-Ang^2)
       XXX    -124.3792    XXY     231.7311    XYY     -30.5404
       YYY     110.5034    XXZ     144.7972    XYZ     -30.8634
       YYZ     -39.5188    XZZ      86.5465    YZZ     -16.0942
       ZZZ     -17.1676
    Hexadecapole Moments (Debye-Ang^3)
      XXXX  -21754.3834   XXXY     851.3773   XXYY   -4298.6025
      XYYY    -391.3040   YYYY   -3667.3394   XXXZ   -1634.7905
      XXYZ     108.6090   XYYZ    -129.1662   YYYZ      63.3631
      XXZZ   -4493.2411   XYZZ     -53.1103   YYZZ    -848.2810
      XZZZ    -217.5500   YZZZ      10.5984   ZZZZ   -1124.0124
 -----------------------------------------------------------------
 Calculating analytic gradient of the SCF energy
