
Running Job 1 of 1 GHSLG_malonate_b97m.in
qchem GHSLG_malonate_b97m.in_24685.0 /scr/c295_krishna/157305/qchem24685/ 1
/usr/software/qchem_511/exe/qcprog.exe_s GHSLG_malonate_b97m.in_24685.0 /scr/c295_krishna/157305/qchem24685/
Check license passed

                  Welcome to Q-Chem
     A Quantum Leap Into The Future Of Chemistry


 Q-Chem 5.1, Q-Chem, Inc., Pleasanton, CA (2018)

 Yihan Shao,  Zhengting Gan,  E. Epifanovsky,  A. T. B. Gilbert,  M. Wormit,  
 J. Kussmann,  A. W. Lange,  A. Behn,  Jia Deng,  Xintian Feng,  D. Ghosh,  
 M. Goldey,  P. R. Horn,  L. D. Jacobson,  I. Kaliman,  T. Kus,  A. Landau,  
 Jie Liu,  E. I. Proynov,  R. M. Richard,  R. P. Steele,  E. J. Sundstrom,  
 H. L. Woodcock III,  P. M. Zimmerman,  D. Zuev,  B. Albrecht,  E. Alguire,  
 S. A. Baeppler,  D. Barton,  Z. Benda,  Y. A. Bernard,  E. J. Berquist,  
 K. B. Bravaya,  H. Burton,  D. Casanova,  Chun-Min Chang,  Yunqing Chen,  
 A. Chien,  K. D. Closser,  M. P. Coons,  S. Coriani,  S. Dasgupta,  
 A. L. Dempwolff,  M. Diedenhofen,  Hainam Do,  R. G. Edgar,  Po-Tung Fang,  
 S. Faraji,  S. Fatehi,  Qingguo Feng,  K. D. Fenk,  J. Fosso-Tande,  
 Qinghui Ge,  A. Ghysels,  G. Gidofalvi,  J. Gomes,  J. Gonthier,  A. Gunina,  
 D. Hait,  M. W. D. Hanson-Heine,  P. H. P. Harbach,  A. W. Hauser,  
 J. E. Herr,  E. G. Hohenstein,  Z. C. Holden,  Kerwin Hui,  B. C. Huynh,  
 T.-C. Jagau,  Hyunjun Ji,  B. Kaduk,  K. Khistyaev,  Jaehoon Kim,  
 P. Klunzinger,  K. Koh,  D. Kosenkov,  L. Koulias,  T. Kowalczyk,  
 C. M. Krauter,  A. Kunitsa,  Ka Un Lao,  A. Laurent,  K. V. Lawler,  
 Joonho Lee,  D. Lefrancois,  S. Lehtola,  D. S. Levine,  Yi-Pei Li,  
 You-Sheng Lin,  Fenglai Liu,  E. Livshits,  A. Luenser,  P. Manohar,  
 E. Mansoor,  S. F. Manzer,  Shan-Ping Mao,  Yuezhi Mao,  N. Mardirossian,  
 A. V. Marenich,  T. Markovich,  L. A. Martinez-Martinez,  S. A. Maurer,  
 N. J. Mayhall,  S. C. McKenzie,  J.-M. Mewes,  A. F. Morrison,  
 J. W. Mullinax,  K. Nanda,  T. S. Nguyen-Beck,  R. Olivares-Amaya,  
 J. A. Parkhill,  T. M. Perrine,  F. Plasser,  P. Pokhilko,  S. Prager,  
 A. Prociuk,  E. Ramos,  D. R. Rehn,  F. Rob,  M. Schneider,  N. Sergueev,  
 S. M. Sharada,  S. Sharma,  D. W. Small,  T. Stauch,  T. Stein,  
 Yu-Chuan Su,  A. J. W. Thom,  A. Tkatchenko,  T. Tsuchimochi,  N. M. Tubman,  
 L. Vogt,  M. L. Vidal,  O. Vydrov,  M. A. Watson,  J. Wenzel,  
 M. de Wergifosse,  T. A. Wesolowski,  A. White,  J. Witte,  A. Yamada,  
 Jun Yang,  K. Yao,  S. Yeganeh,  S. R. Yost,  Zhi-Qiang You,  A. Zech,  
 Igor Ying Zhang,  Xing Zhang,  Yan Zhao,  Ying Zhu,  B. R. Brooks,  
 G. K. L. Chan,  C. J. Cramer,  M. S. Gordon,  W. J. Hehre,  A. Klamt,  
 M. W. Schmidt,  C. D. Sherrill,  D. G. Truhlar,  A. Aspuru-Guzik,  R. Baer,  
 A. T. Bell,  N. A. Besley,  Jeng-Da Chai,  A. E. DePrince, III,  
 R. A. DiStasio Jr.,  A. Dreuw,  B. D. Dunietz,  T. R. Furlani,  
 Chao-Ping Hsu,  Yousung Jung,  Jing Kong,  D. S. Lambrecht,  WanZhen Liang,  
 C. Ochsenfeld,  V. A. Rassolov,  L. V. Slipchenko,  J. E. Subotnik,  
 T. Van Voorhis,  J. M. Herbert,  A. I. Krylov,  P. M. W. Gill,  M. Head-Gordon

 Contributors to earlier versions of Q-Chem not listed above: 
 R. D. Adamson,  B. Austin,  J. Baker,  G. J. O. Beran,  K. Brandhorst,  
 S. T. Brown,  E. F. C. Byrd,  A. K. Chakraborty,  C.-L. Cheng,  
 Siu Hung Chien,  D. M. Chipman,  D. L. Crittenden,  H. Dachsel,  
 R. J. Doerksen,  A. D. Dutoi,  L. Fusti-Molnar,  W. A. Goddard III,  
 A. Golubeva-Zadorozhnaya,  S. R. Gwaltney,  G. Hawkins,  A. Heyden,  
 S. Hirata,  G. Kedziora,  F. J. Keil,  C. Kelley,  Jihan Kim,  R. A. King,  
 R. Z. Khaliullin,  P. P. Korambath,  W. Kurlancheek,  A. M. Lee,  M. S. Lee,  
 S. V. Levchenko,  Ching Yeh Lin,  D. Liotard,  R. C. Lochan,  I. Lotan,  
 P. E. Maslen,  N. Nair,  D. P. O'Neill,  D. Neuhauser,  E. Neuscamman,  
 C. M. Oana,  R. Olson,  B. Peters,  R. Peverati,  P. A. Pieniazek,  
 Y. M. Rhee,  J. Ritchie,  M. A. Rohrdanz,  E. Rosta,  N. J. Russ,  
 H. F. Schaefer III,  N. E. Schultz,  N. Shenvi,  A. C. Simmonett,  A. Sodt,  
 D. Stuck,  K. S. Thanthiriwatte,  V. Vanovschi,  Tao Wang,  A. Warshel,  
 C. F. Williams,  Q. Wu,  X. Xu,  W. Zhang

 Please cite Q-Chem as follows:
 Y. Shao et al., Mol. Phys. 113, 184-215 (2015)
 DOI: 10.1080/00268976.2014.952696

 Q-Chem 5.1.1 for Intel X86 EM64T Linux

 Parts of Q-Chem use Armadillo 8.300.2 (Tropical Shenanigans).
 http://arma.sourceforge.net/

 Q-Chem begins on Tue Nov 27 22:07:30 2018  

Host: cub-0-9.local
0

     Scratch files written to /scr/c295_krishna/157305/qchem24685//
 Aug318 |scratch|qcdevops|jenkins|workspace|build_RNUM -1
Processing $rem in /usr/software/qchem_511/config/preferences.
 MEM_TOTAL  2000 
Input Ideriv = 2
Curr. Ideriv = -1
Max.  Ideriv = 2
Input Ideriv = 1
Curr. Ideriv = 2
Max.  Ideriv = 1

Checking the input file for inconsistencies... 	...done.

--------------------------------------------------------------
User input:
--------------------------------------------------------------
$comment
GHSLG peptide geom opt with no constraints.
$end

$molecule
0 1
N    8.8650830    0.6444490   -0.0280980
C    7.7719010    1.5346630   -0.4058150
C    6.5204470    0.7411570   -0.6739920
O    6.5331900   -0.0891950   -1.5718660
H    7.6022190    2.2644180    0.4148160
H    8.0473530    2.1026190   -1.3219250
H    9.0892310    0.0107160   -0.8300050
H    9.7140760    1.2249290    0.1604270
N    5.3862000    0.9624590    0.0513880
C    4.1458660    0.2349500   -0.1872220
C    3.0135770    0.8127470    0.6420780
O    3.0593180    0.7317370    1.8623360
C    4.3024590   -1.2686900    0.1544890
H    4.6437530   -1.3650520    1.2091430
H    5.0630180   -1.7481220   -0.4933750
C    3.0039290   -2.0138140   -0.0057480
N    2.3154390   -2.1312650   -1.1522740
C    1.2209190   -2.8507000   -0.8408380
H    0.4516490   -3.1193720   -1.5523650
N    1.1881960   -3.1968980    0.4631170
C    2.3114030   -2.6704650    0.9893700
H    2.5981650   -2.7549220    2.0294970
H    2.5680230   -1.7436020   -2.0879350
H    5.3993680    1.6992110    0.7738740
H    3.8830630    0.3391370   -1.2633620
N    1.9300530    1.3554870    0.0182820
C    0.7075120    1.7362490    0.7137650
C   -0.4423050    0.9104540    0.1556200
O   -0.2870370    0.3123500   -0.9015700
H    0.7996050    1.5019440    1.7971070
C    0.4847950    3.2447280    0.5610540
H    1.3717890    3.7644210    0.9884720
H    0.3994350    3.5115800   -0.5157800
O   -0.6500440    3.6576400    1.2317690
H    1.9449700    1.4494030   -1.0094010
N   -1.5936710    0.7444840    0.8676080
C   -2.6651770   -0.1442390    0.4272480
C   -3.9812200    0.5984750    0.4462750
O   -4.3978320    1.0419560    1.5076510
H   -2.4620930   -0.4947740   -0.6049300
H   -1.6754490    1.1935910    1.7928120
C   -2.6605920   -1.3998520    1.3352980
H   -1.6251930   -1.8078100    1.2923820
H   -2.8460850   -1.1040330    2.3911460
C   -3.6001220   -2.5799750    0.9604530
H   -3.3345840   -3.4133510    1.6486950
C   -3.3724900   -3.0778870   -0.4748580
H   -3.9808510   -3.9877750   -0.6645850
H   -2.3034170   -3.3381430   -0.6283300
H   -3.6702880   -2.3101680   -1.2193520
C   -5.0849380   -2.2844840    1.2010250
H   -5.6842380   -3.2033410    1.0248250
H   -5.4684010   -1.5054830    0.5204070
H   -5.2453870   -1.9647440    2.2522320
N   -4.6984200    0.7577020   -0.7033860
C   -5.9908350    1.4228420   -0.7571110
C   -7.0605570    0.4962330   -1.2816060
O   -6.7947660   -0.6538840   -1.5959390
H   -6.3072410    1.7834130    0.2446980
H   -5.9160570    2.3005970   -1.4327380
H   -4.3186740    0.3851310   -1.5871270
O   -8.3303050    0.9339040   -1.4101880
H   -8.5817030    1.8360760   -1.1683990
C   -1.0161160    4.9620150    1.3387890
C   -2.3325350    5.2905180    2.0058430
C   -2.6809370    6.7614230    2.1362000
H   -2.3200170    4.8541900    3.0267690
H   -3.1369920    4.7966210    1.4209170
O   -3.8515220    7.1197810    2.7036300
H   -4.4822560    6.4601350    3.0240420
O   -0.2859590    5.8432390    0.9043100
O   -1.9268240    7.6381540    1.7441410


$end

$rem
JOBTYPE           opt
EXCHANGE        B97M-V
BASIS             6-31G*
--------------------------------------------------------------
 ----------------------------------------------------------------
             Standard Nuclear Orientation (Angstroms)
    I     Atom           X                Y                Z
 ----------------------------------------------------------------
    1      N       9.1615581419     0.8473401955    -0.1848778264
    2      C       7.9798042594     1.4830333102    -0.7589422899
    3      C       6.8495884680     0.4928174997    -0.8579003774
    4      O       7.0010060895    -0.5031680321    -1.5513771774
    5      H       7.6884379849     2.3443470025    -0.1201825566
    6      H       8.2157908077     1.8703485966    -1.7748175638
    7      H       9.4940843865     0.0901315381    -0.8259519435
    8      H       9.9227302935     1.5613215480    -0.1205707195
    9      N       5.6698655194     0.7148275192    -0.2093386668
   10      C       4.5412224620    -0.2036803267    -0.2938412978
   11      C       3.3145027967     0.3859554728     0.3778392286
   12      O       3.3239287837     0.5777806805     1.5864742795
   13      C       4.8733642865    -1.5637228782     0.3711301988
   14      H       5.1839657197    -1.3837458419     1.4243145631
   15      H       5.7123167986    -2.0677917193    -0.1485871123
   16      C       3.6862931230    -2.4899548380     0.3664140595
   17      N       3.0619924445    -2.9423076730    -0.7326585776
   18      C       2.0560723395    -3.7147525846    -0.2809875330
   19      H       1.3543387817    -4.2298400402    -0.9232387107
   20      N       2.0180340868    -3.7716634355     1.0668020419
   21      C       3.0450807821    -3.0007998461     1.4749837425
   22      H       3.3006721944    -2.8196202458     2.5108778432
   23      H       3.2988119940    -2.7366453786    -1.7282299247
   24      H       5.5625822381     1.5857010080     0.3338303583
   25      H       4.3082519446    -0.3704201035    -1.3689786064
   26      N       2.1954970897     0.6335000207    -0.3599007935
   27      C       0.9092488247     0.9916898843     0.2236643042
   28      C      -0.1051749485    -0.0791767375    -0.1501423879
   29      O       0.1642273503    -0.8662412793    -1.0487185123
   30      H       0.9891536137     1.0116709634     1.3328197595
   31      C       0.5038018799     2.3886380748    -0.2586021502
   32      H       1.3012843370     3.1005297279     0.0524562398
   33      H       0.4262161639     2.4024368057    -1.3684930613
   34      O      -0.6986317678     2.7840974047     0.2945521937
   35      H       2.2372884441     0.5038261209    -1.3829419671
   36      N      -1.2524675864    -0.2369601992     0.5702329318
   37      C      -2.1857727047    -1.3329075494     0.3258734219
   38      C      -3.5848243168    -0.7833104979     0.1691795869
   39      O      -4.0939279345    -0.1792789821     1.1033741082
   40      H      -1.9011732060    -1.8687747396    -0.6022207548
   41      H      -1.4252188541     0.3870531573     1.3734461729
   42      C      -2.0570425937    -2.3503853620     1.4874702926
   43      H      -0.9775470145    -2.6182098674     1.5447584301
   44      H      -2.3181916434    -1.8600128625     2.4508329027
   45      C      -2.8252107140    -3.6966962633     1.3722297355
   46      H      -2.4827998021    -4.3189861357     2.2290921046
   47      C      -2.4824264730    -4.4591838111     0.0834465662
   48      H      -2.9634319629    -5.4604564744     0.0925232390
   49      H      -1.3840175462    -4.6036304872     0.0007609750
   50      H      -2.8463995621    -3.9168293967    -0.8141740148
   51      C      -4.3434783565    -3.5539636367     1.5283038690
   52      H      -4.8148810543    -4.5597930712     1.5526300215
   53      H      -4.7962090308    -2.9981284502     0.6897280083
   54      H      -4.5826464158    -3.0381624437     2.4821180411
   55      N      -4.2723969599    -0.9724605856    -0.9939694136
   56      C      -5.6354817658    -0.5105520938    -1.2043844429
   57      C      -6.5590537543    -1.6611303250    -1.5224864975
   58      O      -6.1384910705    -2.8068522025    -1.5741354339
   59      H      -6.0325334542     0.0135508948    -0.3091685530
   60      H      -5.6466250900     0.2021413273    -2.0555373941
   61      H      -3.8155074540    -1.4742839330    -1.7707831860
   62      O      -7.8681203409    -1.4324995807    -1.7557714583
   63      H      -8.2403689786    -0.5404507670    -1.7203164434
   64      C      -1.2302365241     4.0209811234     0.1091575343
   65      C      -2.6018711220     4.3101194029     0.6755953761
   66      C      -3.1378671094     5.7154781882     0.4765642068
   67      H      -2.5729813284     4.1106908603     1.7674847283
   68      H      -3.3148371907     3.5999337954     0.2059790170
   69      O      -4.3649417576     6.0311022864     0.9406070276
   70      H      -4.9190091916     5.3794129285     1.3921957047
   71      O      -0.6012744217     4.8753990754    -0.5014434984
   72      O      -2.4861948191     6.5778828241    -0.0914458218
 ----------------------------------------------------------------
 Molecular Point Group                 C1    NOp =  1
 Largest Abelian Subgroup              C1    NOp =  1
 Nuclear Repulsion Energy =  4537.1623622328 hartrees
 There are      147 alpha and      147 beta electrons
 Requested basis set is 6-31G(d)
 There are 222 shells and 651 basis functions

 Total QAlloc Memory Limit   2000 MB
 Mega-Array Size       188 MB
 MEM_STATIC part       192 MB
 A cutoff of  1.0D-11 yielded   9898 shell pairs
 There are     85981 function pairs
 
 -------------------------------------------------------
 OpenMP Integral Computing Module                       
 Release: version 1.0, May 2013, Q-Chem Inc. Pittsburgh 
 -------------------------------------------------------
 Integral Job Info:
 Integral job number is                      11
 Integral operator is                         1
 short-range coefficients                     0
 long-range coefficients              100000000
 Omega coefficients                           0
 if combine SR and LR in K                    0
 Integral screening is                        0
 Integral computing path is                   2
 max size of driver memory is            800000
 size of driver memory is                593474
 size of scratch memory is              2361544
 max col of scratch BK array               1296
 max len of scratch array in speh3          155
 max len of scratch index in speh4           18
 max int batch size is                      520
 min int batch size is                       52
 fixed nKL is                                52
 max L of basis functions is                  2
 order of int derivative is                   0
 number of shells is                        222
 number of basis is                         651
 number of cartesian basis is               651
 number of contracted shell pairs          9898
 number of primitive shell pairs          31258
 maxK2 (contraction) of shell pair           36
 max number of K2 of shell pair               1
 max number of CS2 of shell pair           1178
 max number of PS2 of shell pair           5292
 mem total for path MDJ                  696300
 -------------------------------------------------------
 Smallest overlap matrix eigenvalue = 1.22E-03

 Scale SEOQF with 1.000000e-02/1.000000e-02/1.000000e-01

 Standard Electronic Orientation quadrupole field applied
 Nucleus-field energy     =     0.0000000058 hartrees
 Guess from superposition of atomic densities
 Warning:  Energy on first SCF cycle will be non-variational
 SAD guess density has 294.000001 electrons

 -----------------------------------------------------------------------
  General SCF calculation program by
  Eric Jon Sundstrom, Paul Horn, Yuezhi Mao, Dmitri Zuev, Alec White,
  David Stuck, Shaama M.S., Shane Yost, Joonho Lee, David Small,
  Daniel Levine, Susi Lehtola, Hugh Burton, Evgeny Epifanovsky
 -----------------------------------------------------------------------
 Exchange:  B97M-V      Correlation:  B97M-V
 Using SG-2 standard quadrature grid
 Nonlocal Correlation:  VV10 with C = 0.0100 and b = 6.00 and scale = 1.00000
 Grid used for NLC:  SG-1 standard quadrature
 using 8 threads for integral computing
 -------------------------------------------------------
 OpenMP Integral computing Module                
 Release: version 1.0, May 2013, Q-Chem Inc. Pittsburgh 
 -------------------------------------------------------
 -------------------------------------------------------
 OpenMP BLAS3 based DFT computing Module                
 Release: version 1.0, May 2013, Q-Chem Inc. Pittsburgh 
 -------------------------------------------------------
 -------------------------------------------------------
 OpenMP BLAS3 based DFT computing Module                
 Release: version 1.0, May 2013, Q-Chem Inc. Pittsburgh 
 -------------------------------------------------------
 -------------------------------------------------------
 OpenMP BLAS3 based DFT computing Module                
 Release: version 1.0, May 2013, Q-Chem Inc. Pittsburgh 
 -------------------------------------------------------
 Nonlocal correlation = 1.072735804067
 A restricted SCF calculation will be
 performed using DIIS
 SCF converges when DIIS error is below 1.0e-08
 ---------------------------------------
  Cycle       Energy         DIIS error
 ---------------------------------------
 Nonlocal correlation = 1.121990142897e+00
    1   -2000.6454424819      3.15e-02  
 Nonlocal correlation = 1.089207752273e+00
    2   -1992.5545057019      4.45e-03  
 Nonlocal correlation = 1.105021649852e+00
    3   -1989.4637785504      9.34e-03  
 Nonlocal correlation = 1.107508064567e+00
    4   -1993.2220428741      2.19e-03  
 Nonlocal correlation = 1.107538389561e+00
    5   -1993.4421354150      5.38e-04  
 Nonlocal correlation = 1.107458047268e+00
    6   -1993.4491236489      3.42e-04  
 Nonlocal correlation = 1.107416979680e+00
    7   -1993.4538221572      1.26e-04  
 Nonlocal correlation = 1.107410614032e+00
    8   -1993.4544988464      3.57e-05  
 Nonlocal correlation = 1.107414219528e+00
    9   -1993.4545526044      1.08e-05  
 Nonlocal correlation = 1.107416298787e+00
   10   -1993.4545571065      4.77e-06  
 Nonlocal correlation = 1.107416289346e+00
   11   -1993.4545579758      1.88e-06  
 Nonlocal correlation = 1.107416020972e+00
   12   -1993.4545581238      5.48e-07  
 Nonlocal correlation = 1.107416047141e+00
   13   -1993.4545581359      2.14e-07  
 Nonlocal correlation = 1.107416056327e+00
   14   -1993.4545581380      7.35e-08  
 Nonlocal correlation = 1.107416046235e+00
   15   -1993.4545581383      2.15e-08  
   16   -1993.4545581383      9.39e-09  Convergence criterion met
 ---------------------------------------
 SCF time:   CPU 27946.18s  wall 3500.00s 
 SCF   energy in the final basis set =    -1993.4545581383
 Total energy in the final basis set =    -1993.4545581383
 
 --------------------------------------------------------------
 
                    Orbital Energies (a.u.)
 --------------------------------------------------------------
 
 Alpha MOs
 -- Occupied --
-19.233 -19.230 -19.225 -19.164 -19.159 -19.150 -19.139 -19.138
-19.137 -19.125 -14.401 -14.397 -14.393 -14.385 -14.382 -14.330
-14.308 -10.339 -10.339 -10.334 -10.299 -10.298 -10.296 -10.284
-10.271 -10.266 -10.260 -10.251 -10.245 -10.244 -10.222 -10.221
-10.200 -10.194 -10.188 -10.186 -10.175 -10.170 -10.161  -1.119
 -1.109  -1.101  -1.045  -1.041  -1.035  -1.027  -1.023  -1.022
 -1.007  -0.999  -0.928  -0.927  -0.919  -0.915  -0.865  -0.850
 -0.800  -0.787  -0.778  -0.763  -0.754  -0.720  -0.714  -0.679
 -0.666  -0.649  -0.642  -0.633  -0.628  -0.621  -0.592  -0.586
 -0.575  -0.570  -0.564  -0.559  -0.555  -0.544  -0.533  -0.521
 -0.516  -0.505  -0.495  -0.493  -0.488  -0.483  -0.477  -0.472
 -0.467  -0.465  -0.458  -0.453  -0.450  -0.439  -0.432  -0.426
 -0.424  -0.418  -0.414  -0.411  -0.410  -0.408  -0.405  -0.400
 -0.396  -0.393  -0.391  -0.387  -0.384  -0.380  -0.376  -0.375
 -0.368  -0.368  -0.365  -0.362  -0.357  -0.357  -0.353  -0.349
 -0.346  -0.342  -0.340  -0.331  -0.326  -0.323  -0.305  -0.297
 -0.295  -0.293  -0.288  -0.286  -0.261  -0.261  -0.255  -0.251
 -0.250  -0.246  -0.240  -0.238  -0.231  -0.231  -0.229  -0.227
 -0.224  -0.208  -0.182
 -- Virtual --
 -0.037  -0.035  -0.027  -0.024  -0.023  -0.011  -0.006   0.017
  0.019   0.024   0.025   0.031   0.052   0.055   0.059   0.063
  0.068   0.068   0.076   0.077   0.081   0.092   0.101   0.108
  0.110   0.115   0.117   0.121   0.126   0.128   0.131   0.133
  0.136   0.141   0.148   0.149   0.153   0.157   0.159   0.165
  0.167   0.170   0.173   0.175   0.179   0.184   0.187   0.190
  0.196   0.199   0.211   0.215   0.218   0.219   0.225   0.231
  0.236   0.237   0.239   0.251   0.255   0.259   0.269   0.276
  0.284   0.292   0.296   0.300   0.326   0.331   0.338   0.342
  0.350   0.355   0.379   0.392   0.400   0.405   0.417   0.421
  0.439   0.471   0.484   0.493   0.498   0.501   0.504   0.514
  0.516   0.518   0.522   0.526   0.531   0.535   0.537   0.542
  0.547   0.553   0.557   0.560   0.564   0.569   0.573   0.579
  0.583   0.593   0.597   0.601   0.606   0.613   0.619   0.622
  0.627   0.629   0.635   0.638   0.643   0.648   0.649   0.651
  0.652   0.657   0.662   0.671   0.675   0.677   0.681   0.684
  0.695   0.699   0.707   0.708   0.719   0.723   0.726   0.729
  0.733   0.739   0.749   0.751   0.759   0.762   0.772   0.774
  0.778   0.781   0.787   0.788   0.794   0.796   0.800   0.806
  0.810   0.811   0.813   0.819   0.821   0.824   0.826   0.833
  0.835   0.839   0.845   0.852   0.853   0.854   0.863   0.866
  0.867   0.871   0.875   0.875   0.877   0.879   0.883   0.890
  0.893   0.897   0.902   0.904   0.906   0.908   0.910   0.919
  0.922   0.927   0.931   0.937   0.941   0.944   0.947   0.953
  0.958   0.962   0.964   0.966   0.978   0.985   0.991   0.995
  0.998   1.003   1.005   1.017   1.023   1.025   1.033   1.040
  1.047   1.054   1.055   1.061   1.065   1.076   1.077   1.094
  1.110   1.115   1.129   1.135   1.140   1.147   1.152   1.155
  1.168   1.173   1.178   1.200   1.210   1.227   1.234   1.240
  1.250   1.259   1.267   1.268   1.281   1.288   1.297   1.309
  1.321   1.329   1.341   1.345   1.350   1.362   1.372   1.377
  1.378   1.385   1.396   1.407   1.412   1.424   1.438   1.440
  1.454   1.458   1.465   1.474   1.477   1.479   1.487   1.496
  1.507   1.517   1.527   1.535   1.549   1.550   1.558   1.558
  1.567   1.571   1.582   1.585   1.598   1.603   1.606   1.609
  1.618   1.643   1.648   1.652   1.662   1.669   1.675   1.691
  1.692   1.703   1.713   1.716   1.732   1.735   1.745   1.747
  1.755   1.760   1.765   1.775   1.777   1.782   1.790   1.793
  1.805   1.810   1.816   1.820   1.823   1.829   1.834   1.837
  1.841   1.848   1.853   1.863   1.869   1.870   1.873   1.887
  1.894   1.898   1.902   1.908   1.909   1.913   1.918   1.928
  1.932   1.939   1.941   1.952   1.959   1.966   1.970   1.979
  1.982   1.989   1.991   1.994   1.997   2.001   2.009   2.018
  2.022   2.028   2.034   2.042   2.047   2.055   2.060   2.073
  2.083   2.088   2.092   2.099   2.106   2.107   2.136   2.136
  2.137   2.138   2.145   2.150   2.154   2.158   2.165   2.174
  2.198   2.205   2.215   2.224   2.234   2.241   2.241   2.259
  2.267   2.270   2.283   2.291   2.299   2.304   2.323   2.332
  2.337   2.341   2.352   2.363   2.378   2.382   2.392   2.398
  2.417   2.419   2.422   2.430   2.452   2.457   2.461   2.462
  2.475   2.476   2.478   2.485   2.499   2.509   2.520   2.526
  2.537   2.561   2.574   2.581   2.594   2.629   2.642   2.646
  2.650   2.659   2.665   2.671   2.674   2.680   2.683   2.696
  2.702   2.715   2.738   2.753   2.758   2.764   2.774   2.791
  2.794   2.798   2.809   2.836   2.841   2.853   2.866   2.875
  2.881   2.890   2.928   2.945   2.963   2.995   3.003   3.023
  3.051   3.056   3.058   3.061   3.082   3.092   3.106   3.113
  3.145   3.151   3.177   3.193   3.210   3.218   3.239   3.256
  3.271   3.890   3.933   3.948   4.059   4.089   4.093   4.098
  4.138   4.161   4.184   4.191   4.194   4.236   4.252   4.269
  4.294   4.332   4.334   4.357   4.395   4.416   4.433   4.453
  4.470   4.485   4.513   4.517   4.549   4.575   4.617   4.636
  4.670   4.676   4.685   4.715   4.768   4.805   4.853   4.861
 --------------------------------------------------------------
 
          Ground-State Mulliken Net Atomic Charges

     Atom                 Charge (a.u.)
  ----------------------------------------
      1 N                    -0.731513
      2 C                    -0.228743
      3 C                     0.665081
      4 O                    -0.527985
      5 H                     0.138413
      6 H                     0.154589
      7 H                     0.320331
      8 H                     0.309186
      9 N                    -0.673056
     10 C                     0.004352
     11 C                     0.622494
     12 O                    -0.510736
     13 C                    -0.365877
     14 H                     0.188594
     15 H                     0.200984
     16 C                     0.258332
     17 N                    -0.598533
     18 C                     0.189268
     19 H                     0.160785
     20 N                    -0.445944
     21 C                    -0.044260
     22 H                     0.153906
     23 H                     0.364432
     24 H                     0.351976
     25 H                     0.135022
     26 N                    -0.633908
     27 C                    -0.121954
     28 C                     0.666041
     29 O                    -0.527982
     30 H                     0.219843
     31 C                    -0.022000
     32 H                     0.179302
     33 H                     0.158895
     34 O                    -0.502013
     35 H                     0.352347
     36 N                    -0.643491
     37 C                    -0.070976
     38 C                     0.664114
     39 O                    -0.540422
     40 H                     0.183150
     41 H                     0.352158
     42 C                    -0.292702
     43 H                     0.184549
     44 H                     0.148652
     45 C                    -0.104450
     46 H                     0.144810
     47 C                    -0.462564
     48 H                     0.156896
     49 H                     0.163385
     50 H                     0.132167
     51 C                    -0.465366
     52 H                     0.148488
     53 H                     0.159653
     54 H                     0.147857
     55 N                    -0.626321
     56 C                    -0.273647
     57 C                     0.651167
     58 O                    -0.438211
     59 H                     0.223286
     60 H                     0.185421
     61 H                     0.358560
     62 O                    -0.586932
     63 H                     0.428193
     64 C                     0.677451
     65 C                    -0.561691
     66 C                     0.670193
     67 H                     0.213745
     68 H                     0.209875
     69 O                    -0.591604
     70 H                     0.421710
     71 O                    -0.422452
     72 O                    -0.404318
  ----------------------------------------
  Sum of atomic charges =     0.000000

 -----------------------------------------------------------------
                    Cartesian Multipole Moments
 -----------------------------------------------------------------
    Charge (ESU x 10^10)
                 0.0000
    Dipole Moment (Debye)
         X      -3.5501      Y       2.6450      Z      -2.6140
       Tot       5.1413
    Quadrupole Moments (Debye-Ang)
        XX    -185.4295     XY      -2.7114     YY    -286.1426
        XZ      -9.7202     YZ      13.0763     ZZ    -222.8468
    Octopole Moments (Debye-Ang^2)
       XXX    -128.9313    XXY     378.1154    XYY     135.9813
       YYY    -267.7765    XXZ     -89.9077    XYZ       2.5992
       YYZ      48.1251    XZZ     -53.5958    YZZ      39.2071
       ZZZ     -21.8838
    Hexadecapole Moments (Debye-Ang^3)
      XXXX  -20750.2869   XXXY    -313.2822   XXYY   -6299.9821
      XYYY     685.5464   YYYY  -14480.3430   XXXZ    -249.8486
      XXYZ    -227.8733   XYYZ    -392.1960   YYYZ     481.1985
      XXZZ   -4500.9284   XYZZ    -184.5399   YYZZ   -2047.2578
      XZZZ      44.2239   YZZZ      79.4956   ZZZZ   -1443.6145
 -----------------------------------------------------------------
 Calculating analytic gradient of the SCF energy
 Gradient of SCF Energy
            1           2           3           4           5           6
    1  -0.0178571  -0.0056608   0.0067697  -0.0020236  -0.0054803   0.0132321
    2   0.0043403  -0.0180356   0.0133916   0.0063523   0.0062535   0.0004047
    3   0.0000946  -0.0035424   0.0095963   0.0032342   0.0055432  -0.0047300
            7           8           9          10          11          12
    1   0.0091887   0.0170113  -0.0020613  -0.0047415   0.0078177  -0.0045863
    2  -0.0198686   0.0184637  -0.0289316   0.0055890  -0.0051718  -0.0021974
    3  -0.0125692   0.0051799  -0.0119310   0.0181064  -0.0230085  -0.0010393
           13          14          15          16          17          18
    1   0.0046464   0.0057636   0.0036590  -0.0433633   0.0022157   0.0240372
    2   0.0114919   0.0008483  -0.0135391  -0.0341563   0.0011505   0.0173306
    3   0.0016366   0.0136577  -0.0024830  -0.0388083   0.0319585  -0.0295033
           19          20          21          22          23          24
    1  -0.0027041   0.0164955  -0.0075477   0.0025066   0.0069731  -0.0000019
    2  -0.0027758   0.0118661  -0.0092719   0.0016126   0.0064260   0.0193562
    3  -0.0000780   0.0339784   0.0206640   0.0026400  -0.0308544   0.0067194
           25          26          27          28          29          30
    1  -0.0060404  -0.0036345   0.0071955   0.0063031  -0.0024973  -0.0075296
    2   0.0003313  -0.0035552  -0.0033351   0.0293119  -0.0029711  -0.0002293
    3  -0.0067399   0.0220533  -0.0152586   0.0044672   0.0110600   0.0139575
           31          32          33          34          35          36
    1  -0.0360260   0.0069027  -0.0030738   0.0589451   0.0069116  -0.0042965
    2  -0.0175943   0.0070346  -0.0009237   0.0113093   0.0024426  -0.0237289
    3   0.0207623   0.0079100  -0.0103596  -0.0336827  -0.0220481  -0.0079805
           37          38          39          40          41          42
    1  -0.0056193   0.0155202   0.0007471  -0.0058840   0.0025442  -0.0050315
    2   0.0208370  -0.0092773  -0.0059775  -0.0122375   0.0122568   0.0100499
    3   0.0077723  -0.0116591  -0.0052583  -0.0084327   0.0145344  -0.0061109
           43          44          45          46          47          48
    1   0.0097197  -0.0007143   0.0031032  -0.0000892  -0.0034745  -0.0052533
    2  -0.0066890   0.0022431  -0.0014029  -0.0069241   0.0015130  -0.0109043
    3   0.0015508   0.0105941   0.0003381   0.0075993  -0.0021686   0.0015503
           49          50          51          52          53          54
    1   0.0111015  -0.0029919   0.0019418  -0.0039466  -0.0017950  -0.0000554
    2  -0.0016929   0.0060305   0.0017706  -0.0107007   0.0044486   0.0039398
    3   0.0014120  -0.0069426  -0.0049070   0.0003632  -0.0060714   0.0104986
           55          56          57          58          59          60
    1  -0.0106475  -0.0006938  -0.0123105   0.0155069  -0.0138690   0.0027196
    2   0.0048334  -0.0075881   0.0304538  -0.0269403   0.0040168   0.0024540
    3   0.0134236   0.0013838   0.0004009   0.0013344   0.0071792  -0.0077799
           61          62          63          64          65          66
    1   0.0116368   0.0045598  -0.0164710  -0.0453683   0.0110812  -0.0366926
    2  -0.0074299   0.0120517  -0.0055312  -0.0449018   0.0250635  -0.0274839
    3  -0.0146955   0.0030688  -0.0039921   0.0369142  -0.0145666   0.0253918
           67          68          69          70          71          72
    1   0.0050237  -0.0040015   0.0029959  -0.0116747   0.0100085   0.0309238
    2   0.0047955  -0.0011000  -0.0095838   0.0122345   0.0287285   0.0196376
    3   0.0096066  -0.0107052   0.0018767   0.0012704  -0.0128318  -0.0205480
 Max gradient component =       5.895E-02
 RMS gradient           =       1.458E-02
 Gradient time:  CPU 2357.96 s  wall 513.90 s
 Geometry Optimization Parameters
   NAtoms,    NIC,     NZ,  NCons,   NDum,   NFix, NCnnct, MaxDiis
       72     513       0       0       0       0       0       0


** GEOMETRY OPTIMIZATION IN DELOCALIZED INTERNAL COORDINATES **
   Searching for a Minimum

   Optimization Cycle:   1

                       Coordinates (Angstroms)
     ATOM                X               Y               Z
      1  N         9.1615581419    0.8473401955   -0.1848778264
      2  C         7.9798042594    1.4830333102   -0.7589422899
      3  C         6.8495884680    0.4928174997   -0.8579003774
      4  O         7.0010060895   -0.5031680321   -1.5513771774
      5  H         7.6884379849    2.3443470025   -0.1201825566
      6  H         8.2157908077    1.8703485966   -1.7748175638
      7  H         9.4940843865    0.0901315381   -0.8259519435
      8  H         9.9227302935    1.5613215480   -0.1205707195
      9  N         5.6698655194    0.7148275192   -0.2093386668
     10  C         4.5412224620   -0.2036803267   -0.2938412978
     11  C         3.3145027967    0.3859554728    0.3778392286
     12  O         3.3239287837    0.5777806805    1.5864742795
     13  C         4.8733642865   -1.5637228782    0.3711301988
     14  H         5.1839657197   -1.3837458419    1.4243145631
     15  H         5.7123167986   -2.0677917193   -0.1485871123
     16  C         3.6862931230   -2.4899548380    0.3664140595
     17  N         3.0619924445   -2.9423076730   -0.7326585776
     18  C         2.0560723395   -3.7147525846   -0.2809875330
     19  H         1.3543387817   -4.2298400402   -0.9232387107
     20  N         2.0180340868   -3.7716634355    1.0668020419
     21  C         3.0450807821   -3.0007998461    1.4749837425
     22  H         3.3006721944   -2.8196202458    2.5108778432
     23  H         3.2988119940   -2.7366453786   -1.7282299247
     24  H         5.5625822381    1.5857010080    0.3338303583
     25  H         4.3082519446   -0.3704201035   -1.3689786064
     26  N         2.1954970897    0.6335000207   -0.3599007935
     27  C         0.9092488247    0.9916898843    0.2236643042
     28  C        -0.1051749485   -0.0791767375   -0.1501423879
     29  O         0.1642273503   -0.8662412793   -1.0487185123
     30  H         0.9891536137    1.0116709634    1.3328197595
     31  C         0.5038018799    2.3886380748   -0.2586021502
     32  H         1.3012843370    3.1005297279    0.0524562398
     33  H         0.4262161639    2.4024368057   -1.3684930613
     34  O        -0.6986317678    2.7840974047    0.2945521937
     35  H         2.2372884441    0.5038261209   -1.3829419671
     36  N        -1.2524675864   -0.2369601992    0.5702329318
     37  C        -2.1857727047   -1.3329075494    0.3258734219
     38  C        -3.5848243168   -0.7833104979    0.1691795869
     39  O        -4.0939279345   -0.1792789821    1.1033741082
     40  H        -1.9011732060   -1.8687747396   -0.6022207548
     41  H        -1.4252188541    0.3870531573    1.3734461729
     42  C        -2.0570425937   -2.3503853620    1.4874702926
     43  H        -0.9775470145   -2.6182098674    1.5447584301
     44  H        -2.3181916434   -1.8600128625    2.4508329027
     45  C        -2.8252107140   -3.6966962633    1.3722297355
     46  H        -2.4827998021   -4.3189861357    2.2290921046
     47  C        -2.4824264730   -4.4591838111    0.0834465662
     48  H        -2.9634319629   -5.4604564744    0.0925232390
     49  H        -1.3840175462   -4.6036304872    0.0007609750
     50  H        -2.8463995621   -3.9168293967   -0.8141740148
     51  C        -4.3434783565   -3.5539636367    1.5283038690
     52  H        -4.8148810543   -4.5597930712    1.5526300215
     53  H        -4.7962090308   -2.9981284502    0.6897280083
     54  H        -4.5826464158   -3.0381624437    2.4821180411
     55  N        -4.2723969599   -0.9724605856   -0.9939694136
     56  C        -5.6354817658   -0.5105520938   -1.2043844429
     57  C        -6.5590537543   -1.6611303250   -1.5224864975
     58  O        -6.1384910705   -2.8068522025   -1.5741354339
     59  H        -6.0325334542    0.0135508948   -0.3091685530
     60  H        -5.6466250900    0.2021413273   -2.0555373941
     61  H        -3.8155074540   -1.4742839330   -1.7707831860
     62  O        -7.8681203409   -1.4324995807   -1.7557714583
     63  H        -8.2403689786   -0.5404507670   -1.7203164434
     64  C        -1.2302365241    4.0209811234    0.1091575343
     65  C        -2.6018711220    4.3101194029    0.6755953761
     66  C        -3.1378671094    5.7154781882    0.4765642068
     67  H        -2.5729813284    4.1106908603    1.7674847283
     68  H        -3.3148371907    3.5999337954    0.2059790170
     69  O        -4.3649417576    6.0311022864    0.9406070276
     70  H        -4.9190091916    5.3794129285    1.3921957047
     71  O        -0.6012744217    4.8753990754   -0.5014434984
     72  O        -2.4861948191    6.5778828241   -0.0914458218
   Point Group: c1    Number of degrees of freedom:   210


   Energy is  -1993.454558138


 Attempting to Generate Delocalized Internal Coordinates

210 Hessian modes will be used to form the next step
  Hessian Eigenvalues:
     0.002000    0.002577    0.002623    0.004393    0.004823    0.004885
     0.006310    0.006826    0.006902    0.007605    0.007687    0.007696
     0.007772    0.007948    0.008024    0.008086    0.008399    0.008428
     0.008433    0.010585    0.010912    0.011454    0.012213    0.012480
     0.012858    0.012965    0.012971    0.013207    0.013295    0.013303
     0.016774    0.018108    0.020351    0.020361    0.020426    0.020543
     0.021070    0.022349    0.022365    0.022592    0.022683    0.023013
     0.023969    0.024450    0.029174    0.031567    0.042279    0.045115
     0.045687    0.046084    0.046271    0.046748    0.046884    0.047697
     0.050789    0.051137    0.051804    0.051917    0.052292    0.052690
     0.053223    0.053848    0.055195    0.055716    0.057262    0.058004
     0.060509    0.064079    0.064139    0.064605    0.065568    0.066266
     0.066463    0.091640    0.093208    0.096626    0.098056    0.105559
     0.115697    0.127467    0.128335    0.130731    0.131585    0.136197
     0.139236    0.159465    0.159751    0.159915    0.159994    0.159995
     0.159997    0.159999    0.160000    0.160000    0.160000    0.160000
     0.160000    0.160000    0.160000    0.160000    0.160000    0.160000
     0.171464    0.172416    0.172597    0.174238    0.176806    0.181730
     0.184237    0.184380    0.219640    0.219845    0.220001    0.220019
     0.220050    0.220059    0.220119    0.220462    0.220860    0.221399
     0.226590    0.234473    0.249218    0.249698    0.249950    0.249956
     0.249986    0.249999    0.249999    0.250000    0.250000    0.250000
     0.250000    0.250000    0.250000    0.250000    0.250000    0.250000
     0.272870    0.276588    0.276885    0.288600    0.291547    0.291974
     0.302043    0.305811    0.306365    0.311605    0.312226    0.314203
     0.317671    0.317889    0.322116    0.322490    0.322875    0.323174
     0.323177    0.323207    0.323344    0.323672    0.323803    0.324731
     0.324856    0.324999    0.325098    0.325217    0.325465    0.325565
     0.325653    0.325801    0.325882    0.327240    0.327949    0.333269
     0.357258    0.357810    0.369527    0.370245    0.372649    0.373235
     0.376586    0.403821    0.404918    0.407462    0.424664    0.424819
     0.425239    0.425512    0.445061    0.488506    0.494212    0.520622
     0.520780    0.521747    0.523499    0.526570    0.531520    0.539375
     0.539423    0.551661    0.551912    0.556034    0.561365    0.934016
     0.935831    0.937196    0.938833    0.940493    0.946935    0.949032

 Minimum Search - Taking Simple RFO Step
 Searching for Lamda that Minimizes Along All modes
 Value Taken    Lamda =  -0.09421842
 Calculated Step too Large.  Step scaled by  0.546392
 Step Taken.  Stepsize is  0.300000

                             Maximum     Tolerance    Cnvgd?
         Gradient           0.046536      0.000300      NO
         Displacement       0.079067      0.001200      NO
         Energy change     *********      0.000001      NO


 New Cartesian Coordinates Obtained by Inverse Iteration

 Displacement from previous Coordinates is:  3.071052
 ----------------------------------------------------------------
             Standard Nuclear Orientation (Angstroms)
    I     Atom           X                Y                Z
 ----------------------------------------------------------------
    1      N       9.1326763456     0.6836576827    -0.1575479253
    2      C       7.9904210195     1.3756617841    -0.7422163247
    3      C       6.8409727820     0.4121573545    -0.8635396627
    4      O       6.9623557485    -0.5859828699    -1.5633762707
    5      H       7.7291694918     2.2355876943    -0.0999070775
    6      H       8.2210402631     1.7660586766    -1.7526336906
    7      H       9.4277777820    -0.0650579351    -0.8033735661
    8      H       9.9150724541     1.3511277184    -0.0855438700
    9      N       5.6810345478     0.6851505367    -0.2086076528
   10      C       4.5259422820    -0.1886497782    -0.2915321151
   11      C       3.3311079523     0.4434649608     0.3867357715
   12      O       3.3427503773     0.6444731502     1.5942577185
   13      C       4.7683687560    -1.5533474846     0.3811949943
   14      H       5.0735728332    -1.3843658644     1.4270668837
   15      H       5.5823004074    -2.0934470617    -0.1272961267
   16      C       3.5153817100    -2.3806599278     0.3715750361
   17      N       2.8566204472    -2.7948477198    -0.7354783663
   18      C       1.7685101410    -3.4823627409    -0.3168139998
   19      H       1.0447177803    -3.9306472819    -0.9809467838
   20      N       1.6995625327    -3.5326885732     1.0136474639
   21      C       2.7893810967    -2.8452099344     1.4437404994
   22      H       3.0220425254    -2.6906731964     2.4870689510
   23      H       3.1231350354    -2.6159537687    -1.7091383512
   24      H       5.6054958881     1.5472130680     0.3330391901
   25      H       4.2928277309    -0.3523822856    -1.3615613155
   26      N       2.2362190628     0.6852091048    -0.3800020335
   27      C       0.9541017072     1.0299246689     0.1797899654
   28      C      -0.0315090719    -0.0644669674    -0.2046426800
   29      O       0.2467316108    -0.8437873276    -1.1098419290
   30      H       1.0382791999     1.0557070547     1.2792247291
   31      C       0.5188154352     2.4087740918    -0.3069362431
   32      H       1.2832590550     3.1482575622    -0.0063141881
   33      H       0.4393222956     2.4212295329    -1.4093942781
   34      O      -0.7080706394     2.7238627869     0.2685892417
   35      H       2.2828730145     0.5333846006    -1.3874695415
   36      N      -1.1647516286    -0.2008500321     0.5310730301
   37      C      -2.0956144622    -1.2930264316     0.3223391177
   38      C      -3.4878562884    -0.7258304166     0.1789036346
   39      O      -3.9896096748    -0.0955026810     1.1023093367
   40      H      -1.8122370094    -1.8308141280    -0.5956000307
   41      H      -1.3336132772     0.4286142406     1.3176671405
   42      C      -1.9682708415    -2.2874997328     1.4921755177
   43      H      -0.8957625425    -2.5521095136     1.5460668318
   44      H      -2.2215283803    -1.7791392747     2.4399739346
   45      C      -2.7453017997    -3.6187787300     1.3978500161
   46      H      -2.4017553689    -4.2254087387     2.2567863180
   47      C      -2.4095797451    -4.3950756489     0.1223101895
   48      H      -2.8905411474    -5.3869576296     0.1410302491
   49      H      -1.3200955551    -4.5447579296     0.0335045142
   50      H      -2.7719605420    -3.8674412912    -0.7766231418
   51      C      -4.2593808782    -3.4646467683     1.5561333770
   52      H      -4.7350034142    -4.4593104971     1.5956264286
   53      H      -4.7110811100    -2.9225305971     0.7147695980
   54      H      -4.4983063433    -2.9357866066     2.4940504529
   55      N      -4.1529889409    -0.9402923409    -0.9881020815
   56      C      -5.4998718554    -0.4808160383    -1.2150543336
   57      C      -6.4308357420    -1.6315700382    -1.5190787387
   58      O      -6.0462307571    -2.7809665943    -1.5694193666
   59      H      -5.8689196012     0.0580803447    -0.3274421434
   60      H      -5.5125404614     0.2203100783    -2.0690562173
   61      H      -3.6987692668    -1.4580660238    -1.7410744295
   62      O      -7.7269450105    -1.3615747292    -1.7473309204
   63      H      -8.0064845201    -0.4373926269    -1.6988225153
   64      C      -1.2623025492     3.9374224713     0.0614477023
   65      C      -2.6352148757     4.0988523551     0.6670494367
   66      C      -3.3193628328     5.4447612588     0.5118253222
   67      H      -2.5590505842     3.8814354324     1.7470711095
   68      H      -3.2878850930     3.3272401001     0.2198772648
   69      O      -4.5506954833     5.5607125640     1.0404671583
   70      H      -4.9286904730     4.7846669018     1.4778904464
   71      O      -0.6794625474     4.8012746099    -0.5637582625
   72      O      -2.8320103880     6.4027119294    -0.0440262528
 ----------------------------------------------------------------
 Molecular Point Group                 C1    NOp =  1
 Largest Abelian Subgroup              C1    NOp =  1
 Nuclear Repulsion Energy =  4601.7108172323 hartrees
 There are      147 alpha and      147 beta electrons
 Applying Cartesian multipole field
    Component          Value
    ---------          -----
     (2,0,0)        1.00000E-12
     (0,2,0)        2.00000E-12
     (0,0,2)       -3.00000E-11
 Nucleus-field energy     =     0.0000000038 hartrees
 Requested basis set is 6-31G(d)
 There are 222 shells and 651 basis functions
 A cutoff of  1.0D-11 yielded  10215 shell pairs
 There are     89156 function pairs
 Smallest overlap matrix eigenvalue = 1.17E-03
 Guess MOs from SCF MO coefficient file

 -----------------------------------------------------------------------
  General SCF calculation program by
  Eric Jon Sundstrom, Paul Horn, Yuezhi Mao, Dmitri Zuev, Alec White,
  David Stuck, Shaama M.S., Shane Yost, Joonho Lee, David Small,
  Daniel Levine, Susi Lehtola, Hugh Burton, Evgeny Epifanovsky
 -----------------------------------------------------------------------
 Exchange:  B97M-V      Correlation:  B97M-V
 Using SG-2 standard quadrature grid
 Nonlocal Correlation:  VV10 with C = 0.0100 and b = 6.00 and scale = 1.00000
 Grid used for NLC:  SG-1 standard quadrature
 using 8 threads for integral computing
 -------------------------------------------------------
 OpenMP Integral computing Module                
 Release: version 1.0, May 2013, Q-Chem Inc. Pittsburgh 
 -------------------------------------------------------
 -------------------------------------------------------
 OpenMP BLAS3 based DFT computing Module                
 Release: version 1.0, May 2013, Q-Chem Inc. Pittsburgh 
 -------------------------------------------------------
 -------------------------------------------------------
 OpenMP BLAS3 based DFT computing Module                
 Release: version 1.0, May 2013, Q-Chem Inc. Pittsburgh 
 -------------------------------------------------------
 -------------------------------------------------------
 OpenMP BLAS3 based DFT computing Module                
 Release: version 1.0, May 2013, Q-Chem Inc. Pittsburgh 
 -------------------------------------------------------
 Nonlocal correlation = 1.104346405408
 A restricted SCF calculation will be
 performed using DIIS
 SCF converges when DIIS error is below 1.0e-08
 ---------------------------------------
  Cycle       Energy         DIIS error
 ---------------------------------------
 Nonlocal correlation = 1.105026079437e+00
    1   -1993.4380374365      8.36e-04  
 Nonlocal correlation = 1.104474279321e+00
    2   -1993.4942942864      1.64e-04  
 Nonlocal correlation = 1.104703653679e+00
    3   -1993.4917684314      2.94e-04  
 Nonlocal correlation = 1.104763093493e+00
    4   -1993.4953129152      6.38e-05  
 Nonlocal correlation = 1.104761435776e+00
    5   -1993.4954807412      1.97e-05  
 Nonlocal correlation = 1.104753876213e+00
    6   -1993.4954958264      7.70e-06  
 Nonlocal correlation = 1.104753902748e+00
    7   -1993.4954981866      2.72e-06  
 Nonlocal correlation = 1.104754621058e+00
    8   -1993.4954984908      8.65e-07  
 Nonlocal correlation = 1.104754525885e+00
    9   -1993.4954985201      3.08e-07  
 Nonlocal correlation = 1.104754531383e+00
   10   -1993.4954985244      9.28e-08  
 Nonlocal correlation = 1.104754519459e+00
   11   -1993.4954985248      3.51e-08  
 Nonlocal correlation = 1.104754521335e+00
   12   -1993.4954985248      1.11e-08  
   13   -1993.4954985248      4.16e-09  Convergence criterion met
 ---------------------------------------
 SCF time:   CPU 23115.72s  wall 2895.00s 
 SCF   energy in the final basis set =    -1993.4954985248
 Total energy in the final basis set =    -1993.4954985248
 
 --------------------------------------------------------------
 
                    Orbital Energies (a.u.)
 --------------------------------------------------------------
 
 Alpha MOs
 -- Occupied --
-19.234 -19.233 -19.224 -19.165 -19.164 -19.152 -19.144 -19.141
-19.141 -19.128 -14.398 -14.397 -14.392 -14.386 -14.382 -14.329
-14.311 -10.338 -10.338 -10.332 -10.300 -10.299 -10.297 -10.285
-10.270 -10.264 -10.256 -10.249 -10.242 -10.241 -10.223 -10.221
-10.204 -10.196 -10.186 -10.181 -10.177 -10.168 -10.160  -1.125
 -1.114  -1.105  -1.048  -1.044  -1.037  -1.028  -1.028  -1.027
 -1.014  -0.997  -0.935  -0.934  -0.926  -0.920  -0.870  -0.851
 -0.804  -0.790  -0.782  -0.765  -0.756  -0.722  -0.717  -0.680
 -0.670  -0.652  -0.643  -0.634  -0.625  -0.618  -0.596  -0.586
 -0.581  -0.575  -0.571  -0.562  -0.558  -0.549  -0.536  -0.523
 -0.518  -0.507  -0.499  -0.496  -0.491  -0.486  -0.479  -0.474
 -0.469  -0.468  -0.461  -0.454  -0.452  -0.442  -0.436  -0.429
 -0.428  -0.419  -0.415  -0.412  -0.411  -0.409  -0.408  -0.403
 -0.399  -0.395  -0.394  -0.388  -0.386  -0.381  -0.379  -0.378
 -0.371  -0.369  -0.368  -0.366  -0.361  -0.359  -0.356  -0.352
 -0.350  -0.343  -0.342  -0.336  -0.329  -0.324  -0.307  -0.299
 -0.297  -0.294  -0.292  -0.289  -0.264  -0.263  -0.257  -0.254
 -0.251  -0.250  -0.243  -0.242  -0.239  -0.234  -0.233  -0.231
 -0.229  -0.211  -0.187
 -- Virtual --
 -0.036  -0.033  -0.024  -0.024  -0.023  -0.011  -0.005   0.017
  0.020   0.025   0.027   0.033   0.053   0.056   0.058   0.067
  0.069   0.077   0.080   0.081   0.084   0.092   0.101   0.111
  0.115   0.119   0.122   0.124   0.131   0.133   0.134   0.137
  0.140   0.144   0.150   0.151   0.157   0.160   0.161   0.168
  0.170   0.173   0.175   0.178   0.179   0.187   0.189   0.193
  0.196   0.199   0.211   0.218   0.219   0.221   0.229   0.230
  0.236   0.238   0.241   0.255   0.257   0.263   0.273   0.277
  0.284   0.292   0.299   0.303   0.322   0.333   0.334   0.343
  0.348   0.356   0.381   0.394   0.401   0.408   0.413   0.425
  0.438   0.465   0.484   0.495   0.497   0.503   0.506   0.514
  0.517   0.520   0.523   0.525   0.531   0.536   0.537   0.542
  0.549   0.554   0.557   0.561   0.564   0.570   0.575   0.578
  0.582   0.595   0.599   0.600   0.609   0.613   0.618   0.623
  0.633   0.635   0.636   0.639   0.642   0.647   0.650   0.654
  0.655   0.659   0.664   0.673   0.678   0.680   0.685   0.692
  0.696   0.702   0.709   0.710   0.718   0.719   0.722   0.730
  0.733   0.742   0.748   0.749   0.758   0.764   0.768   0.777
  0.779   0.781   0.788   0.791   0.793   0.797   0.798   0.809
  0.810   0.813   0.814   0.820   0.824   0.827   0.829   0.836
  0.839   0.842   0.849   0.855   0.858   0.861   0.869   0.870
  0.873   0.875   0.879   0.879   0.880   0.885   0.889   0.894
  0.895   0.904   0.906   0.906   0.909   0.914   0.916   0.921
  0.925   0.930   0.938   0.941   0.945   0.948   0.951   0.952
  0.960   0.964   0.966   0.970   0.984   0.992   0.994   1.001
  1.003   1.005   1.012   1.024   1.026   1.031   1.034   1.043
  1.050   1.053   1.058   1.074   1.078   1.082   1.094   1.110
  1.119   1.126   1.135   1.141   1.147   1.149   1.155   1.163
  1.171   1.186   1.196   1.205   1.223   1.228   1.228   1.241
  1.251   1.255   1.266   1.275   1.280   1.287   1.301   1.310
  1.316   1.320   1.329   1.343   1.350   1.363   1.370   1.376
  1.381   1.386   1.395   1.408   1.414   1.421   1.439   1.447
  1.453   1.461   1.466   1.477   1.479   1.485   1.488   1.505
  1.511   1.519   1.529   1.544   1.554   1.560   1.563   1.567
  1.572   1.578   1.588   1.595   1.605   1.608   1.613   1.622
  1.629   1.640   1.652   1.654   1.666   1.673   1.676   1.694
  1.701   1.708   1.715   1.720   1.731   1.736   1.750   1.754
  1.759   1.768   1.771   1.779   1.786   1.789   1.795   1.799
  1.804   1.812   1.814   1.816   1.823   1.830   1.836   1.838
  1.842   1.849   1.859   1.865   1.870   1.874   1.876   1.884
  1.892   1.898   1.901   1.908   1.912   1.916   1.920   1.932
  1.934   1.941   1.951   1.957   1.965   1.969   1.973   1.976
  1.986   1.989   1.994   1.997   2.003   2.007   2.020   2.027
  2.031   2.036   2.041   2.050   2.058   2.064   2.067   2.080
  2.089   2.092   2.102   2.107   2.116   2.119   2.134   2.138
  2.139   2.143   2.147   2.159   2.162   2.167   2.170   2.186
  2.204   2.212   2.223   2.227   2.243   2.250   2.254   2.265
  2.272   2.278   2.285   2.292   2.305   2.312   2.323   2.335
  2.341   2.353   2.361   2.381   2.382   2.390   2.401   2.409
  2.420   2.430   2.433   2.444   2.451   2.462   2.466   2.469
  2.478   2.482   2.488   2.504   2.509   2.527   2.533   2.539
  2.542   2.564   2.577   2.583   2.596   2.633   2.647   2.652
  2.664   2.668   2.672   2.680   2.683   2.691   2.695   2.704
  2.717   2.729   2.754   2.761   2.764   2.770   2.782   2.793
  2.802   2.802   2.813   2.834   2.845   2.853   2.865   2.881
  2.884   2.890   2.937   2.959   2.971   3.008   3.010   3.040
  3.055   3.060   3.061   3.067   3.084   3.097   3.114   3.123
  3.139   3.157   3.187   3.204   3.216   3.225   3.248   3.264
  3.273   3.897   3.933   3.941   4.078   4.089   4.113   4.116
  4.148   4.169   4.192   4.197   4.213   4.247   4.262   4.281
  4.305   4.337   4.346   4.365   4.411   4.426   4.440   4.468
  4.478   4.496   4.515   4.536   4.570   4.589   4.639   4.644
  4.679   4.681   4.694   4.722   4.775   4.819   4.862   4.876
 --------------------------------------------------------------
 
          Ground-State Mulliken Net Atomic Charges

     Atom                 Charge (a.u.)
  ----------------------------------------
      1 N                    -0.731915
      2 C                    -0.235416
      3 C                     0.664805
      4 O                    -0.531408
      5 H                     0.140858
      6 H                     0.153795
      7 H                     0.322542
      8 H                     0.311670
      9 N                    -0.669284
     10 C                     0.001791
     11 C                     0.618720
     12 O                    -0.514557
     13 C                    -0.365502
     14 H                     0.192719
     15 H                     0.202785
     16 C                     0.263053
     17 N                    -0.606862
     18 C                     0.209967
     19 H                     0.161718
     20 N                    -0.446385
     21 C                    -0.058594
     22 H                     0.152470
     23 H                     0.358360
     24 H                     0.354620
     25 H                     0.138255
     26 N                    -0.626849
     27 C                    -0.126506
     28 C                     0.668522
     29 O                    -0.534440
     30 H                     0.220792
     31 C                    -0.028723
     32 H                     0.183562
     33 H                     0.163202
     34 O                    -0.496517
     35 H                     0.353570
     36 N                    -0.635125
     37 C                    -0.077688
     38 C                     0.665828
     39 O                    -0.546865
     40 H                     0.181700
     41 H                     0.354377
     42 C                    -0.300676
     43 H                     0.194404
     44 H                     0.146902
     45 C                    -0.104383
     46 H                     0.146546
     47 C                    -0.469065
     48 H                     0.158251
     49 H                     0.167909
     50 H                     0.131521
     51 C                    -0.468158
     52 H                     0.150721
     53 H                     0.157179
     54 H                     0.149499
     55 N                    -0.619923
     56 C                    -0.285577
     57 C                     0.648812
     58 O                    -0.436879
     59 H                     0.223214
     60 H                     0.186676
     61 H                     0.361324
     62 O                    -0.577465
     63 H                     0.425903
     64 C                     0.681605
     65 C                    -0.571044
     66 C                     0.670830
     67 H                     0.216948
     68 H                     0.213891
     69 O                    -0.585160
     70 H                     0.421017
     71 O                    -0.431583
     72 O                    -0.410283
  ----------------------------------------
  Sum of atomic charges =    -0.000000

 -----------------------------------------------------------------
                    Cartesian Multipole Moments
 -----------------------------------------------------------------
    Charge (ESU x 10^10)
                -0.0000
    Dipole Moment (Debye)
         X      -2.1597      Y       1.9764      Z      -2.5291
       Tot       3.8688
    Quadrupole Moments (Debye-Ang)
        XX    -193.0425     XY       3.9052     YY    -286.1701
        XZ      -8.7279     YZ      10.2401     ZZ    -223.2542
    Octopole Moments (Debye-Ang^2)
       XXX     -27.5682    XXY     329.8765    XYY     178.8535
       YYY    -272.0832    XXZ     -76.4457    XYZ       5.6578
       YYZ      42.0652    XZZ     -51.3518    YZZ      36.2719
       ZZZ     -18.6867
    Hexadecapole Moments (Debye-Ang^3)
      XXXX  -20754.0132   XXXY     -47.5744   XXYY   -6327.5909
      XYYY     909.5464   YYYY  -13385.7062   XXXZ    -251.9070
      XXYZ    -271.5105   XYYZ    -287.0379   YYYZ     360.3744
      XXZZ   -4440.5711   XYZZ    -150.7564   YYZZ   -1930.3750
      XZZZ      73.4046   YZZZ      64.5205   ZZZZ   -1457.8280
 -----------------------------------------------------------------
 Calculating analytic gradient of the SCF energy
 Gradient of SCF Energy
            1           2           3           4           5           6
    1  -0.0095794  -0.0049300   0.0047993  -0.0002796  -0.0027659   0.0080437
    2   0.0023929  -0.0114226   0.0089662   0.0026414   0.0042714  -0.0005495
    3  -0.0006612  -0.0030057   0.0081286  -0.0000985   0.0034049  -0.0024256
            7           8           9          10          11          12
    1   0.0046231   0.0093462  -0.0021322  -0.0029871   0.0051335  -0.0024721
    2  -0.0111557   0.0105933  -0.0165169   0.0025890  -0.0029561  -0.0032980
    3  -0.0073608   0.0036671  -0.0072551   0.0131734  -0.0149558   0.0019301
           13          14          15          16          17          18
    1   0.0056907   0.0036292   0.0014377  -0.0254656   0.0024976   0.0110544
    2   0.0104737   0.0002582  -0.0083822  -0.0144763   0.0021692   0.0066271
    3   0.0025703   0.0077590  -0.0009335  -0.0275368   0.0249418  -0.0197048
           19          20          21          22          23          24
    1  -0.0023275   0.0083158  -0.0049670   0.0021919   0.0049292   0.0001166
    2  -0.0023398   0.0051868  -0.0063769   0.0013111   0.0033683   0.0121681
    3   0.0010125   0.0197376   0.0096157   0.0008702  -0.0166228   0.0026213
           25          26          27          28          29          30
    1  -0.0044494  -0.0057176   0.0077272   0.0041178   0.0009162  -0.0052943
    2   0.0002160  -0.0067576  -0.0009072   0.0206185  -0.0042926  -0.0002533
    3  -0.0044268   0.0116731  -0.0095928   0.0009169   0.0066465   0.0081902
           31          32          33          34          35          36
    1  -0.0272597   0.0052121  -0.0007837   0.0382613   0.0044220  -0.0051839
    2  -0.0098622   0.0040696  -0.0012525   0.0105877   0.0039449  -0.0148451
    3   0.0144182   0.0044864  -0.0066478  -0.0232442  -0.0131894  -0.0018467
           37          38          39          40          41          42
    1  -0.0011354   0.0096590  -0.0001557  -0.0042922   0.0015470  -0.0048984
    2   0.0171904  -0.0058796  -0.0040639  -0.0088932   0.0067423   0.0077037
    3   0.0037460  -0.0088691  -0.0007435  -0.0040146   0.0087343  -0.0048944
           43          44          45          46          47          48
    1   0.0056178   0.0003657   0.0032527  -0.0005428  -0.0024469  -0.0030205
    2  -0.0043473   0.0006945  -0.0015271  -0.0039589   0.0008625  -0.0061526
    3   0.0006239   0.0063039   0.0007224   0.0046986  -0.0019654   0.0013773
           49          50          51          52          53          54
    1   0.0063940  -0.0014045   0.0004294  -0.0021704  -0.0008135   0.0001726
    2  -0.0012344   0.0036950   0.0012960  -0.0062147   0.0027482   0.0019736
    3   0.0007689  -0.0037700  -0.0035518   0.0003868  -0.0033261   0.0062829
           55          56          57          58          59          60
    1  -0.0068282   0.0008644  -0.0085746   0.0068597  -0.0085239   0.0024416
    2   0.0010863  -0.0043365   0.0203812  -0.0165071   0.0023716   0.0006994
    3   0.0073805   0.0025378  -0.0005372   0.0007907   0.0034764  -0.0046649
           61          62          63          64          65          66
    1   0.0064731   0.0077593  -0.0113221  -0.0245772   0.0054519  -0.0224055
    2  -0.0033905   0.0057330  -0.0032465  -0.0342018   0.0149728  -0.0185902
    3  -0.0091567   0.0028271  -0.0026439   0.0244140  -0.0086554   0.0166713
           67          68          69          70          71          72
    1   0.0032608  -0.0028285   0.0094101  -0.0096580   0.0083575   0.0114083
    2   0.0040928   0.0000524  -0.0056236   0.0066262   0.0165240   0.0159338
    3   0.0060888  -0.0076142  -0.0020996   0.0019341  -0.0087381  -0.0107796
 Max gradient component =       3.826E-02
 RMS gradient           =       9.276E-03
 Gradient time:  CPU 2379.57 s  wall 532.52 s
 Geometry Optimization Parameters
   NAtoms,    NIC,     NZ,  NCons,   NDum,   NFix, NCnnct, MaxDiis
       72     513       0       0       0       0       0       0

 Cartesian Hessian Update
 Hessian Updated using BFGS Update


** GEOMETRY OPTIMIZATION IN DELOCALIZED INTERNAL COORDINATES **
   Searching for a Minimum

   Optimization Cycle:   2

                       Coordinates (Angstroms)
     ATOM                X               Y               Z
      1  N         9.1326763456    0.6836576827   -0.1575479253
      2  C         7.9904210195    1.3756617841   -0.7422163247
      3  C         6.8409727820    0.4121573545   -0.8635396627
      4  O         6.9623557485   -0.5859828699   -1.5633762707
      5  H         7.7291694918    2.2355876943   -0.0999070775
      6  H         8.2210402631    1.7660586766   -1.7526336906
      7  H         9.4277777820   -0.0650579351   -0.8033735661
      8  H         9.9150724541    1.3511277184   -0.0855438700
      9  N         5.6810345478    0.6851505367   -0.2086076528
     10  C         4.5259422820   -0.1886497782   -0.2915321151
     11  C         3.3311079523    0.4434649608    0.3867357715
     12  O         3.3427503773    0.6444731502    1.5942577185
     13  C         4.7683687560   -1.5533474846    0.3811949943
     14  H         5.0735728332   -1.3843658644    1.4270668837
     15  H         5.5823004074   -2.0934470617   -0.1272961267
     16  C         3.5153817100   -2.3806599278    0.3715750361
     17  N         2.8566204472   -2.7948477198   -0.7354783663
     18  C         1.7685101410   -3.4823627409   -0.3168139998
     19  H         1.0447177803   -3.9306472819   -0.9809467838
     20  N         1.6995625327   -3.5326885732    1.0136474639
     21  C         2.7893810967   -2.8452099344    1.4437404994
     22  H         3.0220425254   -2.6906731964    2.4870689510
     23  H         3.1231350354   -2.6159537687   -1.7091383512
     24  H         5.6054958881    1.5472130680    0.3330391901
     25  H         4.2928277309   -0.3523822856   -1.3615613155
     26  N         2.2362190628    0.6852091048   -0.3800020335
     27  C         0.9541017072    1.0299246689    0.1797899654
     28  C        -0.0315090719   -0.0644669674   -0.2046426800
     29  O         0.2467316108   -0.8437873276   -1.1098419290
     30  H         1.0382791999    1.0557070547    1.2792247291
     31  C         0.5188154352    2.4087740918   -0.3069362431
     32  H         1.2832590550    3.1482575622   -0.0063141881
     33  H         0.4393222956    2.4212295329   -1.4093942781
     34  O        -0.7080706394    2.7238627869    0.2685892417
     35  H         2.2828730145    0.5333846006   -1.3874695415
     36  N        -1.1647516286   -0.2008500321    0.5310730301
     37  C        -2.0956144622   -1.2930264316    0.3223391177
     38  C        -3.4878562884   -0.7258304166    0.1789036346
     39  O        -3.9896096748   -0.0955026810    1.1023093367
     40  H        -1.8122370094   -1.8308141280   -0.5956000307
     41  H        -1.3336132772    0.4286142406    1.3176671405
     42  C        -1.9682708415   -2.2874997328    1.4921755177
     43  H        -0.8957625425   -2.5521095136    1.5460668318
     44  H        -2.2215283803   -1.7791392747    2.4399739346
     45  C        -2.7453017997   -3.6187787300    1.3978500161
     46  H        -2.4017553689   -4.2254087387    2.2567863180
     47  C        -2.4095797451   -4.3950756489    0.1223101895
     48  H        -2.8905411474   -5.3869576296    0.1410302491
     49  H        -1.3200955551   -4.5447579296    0.0335045142
     50  H        -2.7719605420   -3.8674412912   -0.7766231418
     51  C        -4.2593808782   -3.4646467683    1.5561333770
     52  H        -4.7350034142   -4.4593104971    1.5956264286
     53  H        -4.7110811100   -2.9225305971    0.7147695980
     54  H        -4.4983063433   -2.9357866066    2.4940504529
     55  N        -4.1529889409   -0.9402923409   -0.9881020815
     56  C        -5.4998718554   -0.4808160383   -1.2150543336
     57  C        -6.4308357420   -1.6315700382   -1.5190787387
     58  O        -6.0462307571   -2.7809665943   -1.5694193666
     59  H        -5.8689196012    0.0580803447   -0.3274421434
     60  H        -5.5125404614    0.2203100783   -2.0690562173
     61  H        -3.6987692668   -1.4580660238   -1.7410744295
     62  O        -7.7269450105   -1.3615747292   -1.7473309204
     63  H        -8.0064845201   -0.4373926269   -1.6988225153
     64  C        -1.2623025492    3.9374224713    0.0614477023
     65  C        -2.6352148757    4.0988523551    0.6670494367
     66  C        -3.3193628328    5.4447612588    0.5118253222
     67  H        -2.5590505842    3.8814354324    1.7470711095
     68  H        -3.2878850930    3.3272401001    0.2198772648
     69  O        -4.5506954833    5.5607125640    1.0404671583
     70  H        -4.9286904730    4.7846669018    1.4778904464
     71  O        -0.6794625474    4.8012746099   -0.5637582625
     72  O        -2.8320103880    6.4027119294   -0.0440262528
   Point Group: c1    Number of degrees of freedom:   210


   Energy is  -1993.495498525

 Hessian Updated using BFGS Update

196 Hessian modes will be used to form the next step
  Hessian Eigenvalues:
     0.002000    0.002577    0.002623    0.004393    0.004823    0.004885
     0.006312    0.006822    0.006902    0.007604    0.007685    0.007698
     0.007772    0.007948    0.008033    0.008085    0.008400    0.008425
     0.008433    0.010585    0.010912    0.011454    0.012198    0.012516
     0.012853    0.012961    0.012970    0.013196    0.013294    0.013302
     0.016785    0.018086    0.020352    0.020361    0.020420    0.020534
     0.021063    0.022349    0.022365    0.022591    0.022686    0.023013
     0.023975    0.024450    0.029168    0.031563    0.042336    0.045172
     0.045702    0.046084    0.046309    0.046788    0.046889    0.047696
     0.050805    0.051117    0.051805    0.052025    0.052305    0.052790
     0.053226    0.053854    0.055195    0.055716    0.057264    0.058000
     0.060480    0.063917    0.064137    0.065007    0.065628    0.066281
     0.066463    0.091641    0.093380    0.096658    0.098199    0.105510
     0.115636    0.127568    0.128326    0.130955    0.131143    0.136196
     0.139165    0.151849    0.159504    0.159774    0.159916    0.159994
     0.159995    0.159997    0.160000    0.160793    0.171478    0.172314
     0.172488    0.174357    0.176808    0.179357    0.184206    0.185788
     0.208496    0.219733    0.219918    0.220016    0.220041    0.220050
     0.220186    0.220223    0.220467    0.222767    0.227657    0.235227
     0.240809    0.249231    0.249707    0.249951    0.249960    0.249987
     0.249999    0.250000    0.250000    0.272152    0.273889    0.276770
     0.287843    0.289720    0.291538    0.293408    0.302423    0.306028
     0.309477    0.311353    0.312519    0.314212    0.316988    0.317812
     0.322199    0.322376    0.322914    0.323042    0.323188    0.323255
     0.323472    0.323732    0.324192    0.324696    0.324899    0.325027
     0.325140    0.325409    0.325505    0.325623    0.325719    0.325849
     0.327028    0.327761    0.332158    0.334400    0.357336    0.357796
     0.370069    0.370382    0.372477    0.375484    0.383331    0.403941
     0.404993    0.408587    0.422559    0.424743    0.425109    0.425440
     0.444932    0.484974    0.493667    0.519161    0.520719    0.521189
     0.523557    0.525046    0.534279    0.539371    0.539467    0.551603
     0.552865    0.560057    0.571439    0.925853    0.934418    0.937477
     0.939184    0.941146    0.944355    0.948343

 Minimum Search - Taking Simple RFO Step
 Searching for Lamda that Minimizes Along All modes
 Value Taken    Lamda =  -0.04725091
 Calculated Step too Large.  Step scaled by  0.564664
 Step Taken.  Stepsize is  0.300000

                             Maximum     Tolerance    Cnvgd?
         Gradient           0.024564      0.000300      NO
         Displacement       0.077489      0.001200      NO
         Energy change     -0.040940      0.000001      NO


 New Cartesian Coordinates Obtained by Inverse Iteration

 Displacement from previous Coordinates is:  3.511263
 ----------------------------------------------------------------
             Standard Nuclear Orientation (Angstroms)
    I     Atom           X                Y                Z
 ----------------------------------------------------------------
    1      N       9.1358981246     0.4492760153    -0.1071143310
    2      C       8.0553238468     1.2212886059    -0.7080463361
    3      C       6.8610676435     0.3151705098    -0.8585379161
    4      O       6.9328338148    -0.6885060891    -1.5579010962
    5      H       7.8374442482     2.0856200385    -0.0655353455
    6      H       8.3036397560     1.6082776029    -1.7122603254
    7      H       9.3818410595    -0.3030911871    -0.7521162632
    8      H       9.9571658593     1.0482592145    -0.0224331969
    9      N       5.7201411754     0.6578255603    -0.2112018139
   10      C       4.5277657206    -0.1533244809    -0.3077366531
   11      C       3.3602481931     0.5414114241     0.3599981386
   12      O       3.3692460050     0.7728586982     1.5610039728
   13      C       4.6751243758    -1.5242039439     0.3774960858
   14      H       4.9649519866    -1.3611061862     1.4205799685
   15      H       5.4691797071    -2.1007082206    -0.1113682191
   16      C       3.3767025054    -2.2636417069     0.3551238969
   17      N       2.7169135359    -2.6464257071    -0.7766454762
   18      C       1.5658733218    -3.2487613992    -0.3904789382
   19      H       0.8413766943    -3.6404716274    -1.0860814803
   20      N       1.4468889968    -3.2825673562     0.9244745918
   21      C       2.5725158352    -2.6688047084     1.3932930686
   22      H       2.7629911455    -2.5270784450     2.4459520948
   23      H       3.0186938621    -2.4991216339    -1.7312728827
   24      H       5.6847289095     1.5100227452     0.3333535629
   25      H       4.3060718751    -0.3169497011    -1.3746844249
   26      N       2.2835211853     0.7731424272    -0.4296349479
   27      C       0.9975153696     1.0938420377     0.1162535986
   28      C       0.0407822219    -0.0329977504    -0.2656503077
   29      O       0.3142015711    -0.7992828268    -1.1837819078
   30      H       1.0964281199     1.1305692557     1.2069365218
   31      C       0.4968083554     2.4458600241    -0.3701140996
   32      H       1.2072277603     3.2346941639    -0.0911230028
   33      H       0.3912785320     2.4543898134    -1.4637771882
   34      O      -0.7493237018     2.6523406066     0.2473774971
   35      H       2.3303790705     0.5799930816    -1.4201802562
   36      N      -1.0760622425    -0.1537194550     0.4846963338
   37      C      -2.0110556306    -1.2435808743     0.3187506261
   38      C      -3.3916435577    -0.6460135178     0.1689129078
   39      O      -3.8826200462     0.0335008092     1.0636241759
   40      H      -1.7292548659    -1.7919860908    -0.5861145316
   41      H      -1.2392142992     0.4887241017     1.2512801916
   42      C      -1.8935528754    -2.2016109515     1.5131879650
   43      H      -0.8279667025    -2.4666275222     1.5764656433
   44      H      -2.1447623673    -1.6576182862     2.4356577097
   45      C      -2.6837913097    -3.5184216770     1.4570513212
   46      H      -2.3444961510    -4.0955526965     2.3311156708
   47      C      -2.3485809275    -4.3339326307     0.2113574879
   48      H      -2.8310970288    -5.3173883361     0.2537520961
   49      H      -1.2655980976    -4.4907633289     0.1288968530
   50      H      -2.7035791105    -3.8378939017    -0.7026176537
   51      C      -4.1947038969    -3.3481730013     1.6054216210
   52      H      -4.6772309621    -4.3310828433     1.6756972570
   53      H      -4.6398930934    -2.8356518471     0.7470665476
   54      H      -4.4383261503    -2.7867055078     2.5160689109
   55      N      -4.0371082754    -0.8887910740    -1.0000092684
   56      C      -5.3663316303    -0.4182382397    -1.2542735947
   57      C      -6.3147955817    -1.5628674086    -1.5353621141
   58      O      -5.9649223568    -2.7165038446    -1.5705186838
   59      H      -5.7078628672     0.1473936392    -0.3796722500
   60      H      -5.3747185037     0.2634023856    -2.1195735112
   61      H      -3.5868395877    -1.4409634274    -1.7185821838
   62      O      -7.5966241628    -1.2388543460    -1.7685723539
   63      H      -7.7719795418    -0.2892484316    -1.7179351987
   64      C      -1.3907281107     3.8169083317     0.0275221706
   65      C      -2.7295158233     3.8062799630     0.7088564829
   66      C      -3.5611760290     5.0614422185     0.5704613621
   67      H      -2.5719124858     3.6059044618     1.7779919634
   68      H      -3.3020578199     2.9522731373     0.3160647404
   69      O      -4.7627069728     5.0040632239     1.1769834900
   70      H      -4.9382586620     4.1604625252     1.6184462543
   71      O      -0.9303096007     4.7137776958    -0.6356101780
   72      O      -3.2304207461     6.0565664512    -0.0160287037
 ----------------------------------------------------------------
 Molecular Point Group                 C1    NOp =  1
 Largest Abelian Subgroup              C1    NOp =  1
 Nuclear Repulsion Energy =  4665.8836207452 hartrees
 There are      147 alpha and      147 beta electrons
 Applying Cartesian multipole field
    Component          Value
    ---------          -----
     (2,0,0)        1.00000E-12
     (0,2,0)        2.00000E-12
     (0,0,2)       -3.00000E-11
 Nucleus-field energy     =     0.0000000013 hartrees
 Requested basis set is 6-31G(d)
 There are 222 shells and 651 basis functions
 A cutoff of  1.0D-11 yielded  10545 shell pairs
 There are     92195 function pairs
 Smallest overlap matrix eigenvalue = 1.14E-03
 Guess MOs from SCF MO coefficient file

 -----------------------------------------------------------------------
  General SCF calculation program by
  Eric Jon Sundstrom, Paul Horn, Yuezhi Mao, Dmitri Zuev, Alec White,
  David Stuck, Shaama M.S., Shane Yost, Joonho Lee, David Small,
  Daniel Levine, Susi Lehtola, Hugh Burton, Evgeny Epifanovsky
 -----------------------------------------------------------------------
 Exchange:  B97M-V      Correlation:  B97M-V
 Using SG-2 standard quadrature grid
 Nonlocal Correlation:  VV10 with C = 0.0100 and b = 6.00 and scale = 1.00000
 Grid used for NLC:  SG-1 standard quadrature
 using 8 threads for integral computing
 -------------------------------------------------------
 OpenMP Integral computing Module                
 Release: version 1.0, May 2013, Q-Chem Inc. Pittsburgh 
 -------------------------------------------------------
 -------------------------------------------------------
 OpenMP BLAS3 based DFT computing Module                
 Release: version 1.0, May 2013, Q-Chem Inc. Pittsburgh 
 -------------------------------------------------------
 -------------------------------------------------------
 OpenMP BLAS3 based DFT computing Module                
 Release: version 1.0, May 2013, Q-Chem Inc. Pittsburgh 
 -------------------------------------------------------
 -------------------------------------------------------
 OpenMP BLAS3 based DFT computing Module                
 Release: version 1.0, May 2013, Q-Chem Inc. Pittsburgh 
 -------------------------------------------------------
 Nonlocal correlation = 1.101522417831
 A restricted SCF calculation will be
 performed using DIIS
 SCF converges when DIIS error is below 1.0e-08
 ---------------------------------------
  Cycle       Energy         DIIS error
 ---------------------------------------
 Nonlocal correlation = 1.102067131859e+00
    1   -1993.4436012084      9.25e-04  
 Nonlocal correlation = 1.101606797908e+00
    2   -1993.5144025327      1.45e-04  
 Nonlocal correlation = 1.101820666181e+00
    3   -1993.5128217013      2.41e-04  
 Nonlocal correlation = 1.101854970803e+00
    4   -1993.5151934658      5.91e-05  
 Nonlocal correlation = 1.101852325501e+00
    5   -1993.5153350180      1.97e-05  
 Nonlocal correlation = 1.101844623072e+00
    6   -1993.5153513689      6.25e-06  
 Nonlocal correlation = 1.101845221177e+00
    7   -1993.5153528222      2.71e-06  
[...]
     0.258122    0.263386    0.269291    0.274735    0.277499    0.282501
     0.285615    0.288453    0.290789    0.291984    0.300999    0.301152
     0.307273    0.313553    0.315490    0.316370    0.317878    0.321069
     0.322151    0.322323    0.322801    0.322913    0.323296    0.323525
     0.323739    0.323868    0.324204    0.324429    0.324774    0.324919
     0.325255    0.325455    0.325738    0.326555    0.326876    0.327789
     0.328251    0.329969    0.332788    0.337722    0.338898    0.353012
     0.357487    0.358031    0.370144    0.372200    0.374218    0.382944
     0.388668    0.402843    0.404500    0.406460    0.413869    0.424234
     0.425009    0.425609    0.428572    0.448513    0.463401    0.494655
     0.512789    0.520145    0.520538    0.522169    0.524097    0.530435
     0.538218    0.540093    0.552403    0.557472    0.563278    0.580332
     0.708198    0.919860    0.925589    0.928815    0.935568    0.940974
     0.947038    0.948855    1.082537    1.715606    3.392359   18.164989

 Minimum Search - Taking Simple RFO Step
 Searching for Lamda that Minimizes Along All modes
 Value Taken    Lamda =  -0.00015518
 Step Taken.  Stepsize is  0.089280

                             Maximum     Tolerance    Cnvgd?
         Gradient           0.005095      0.000300      NO
         Displacement       0.025669      0.001200      NO
         Energy change     -0.000081      0.000001      NO


 New Cartesian Coordinates Obtained by Inverse Iteration

 Displacement from previous Coordinates is:  0.284813
 ----------------------------------------------------------------
             Standard Nuclear Orientation (Angstroms)
    I     Atom           X                Y                Z
 ----------------------------------------------------------------
    1      N       8.9984255116     0.0623248957    -1.3062560946
    2      C       7.9194681142     0.9968255844    -1.0548053694
    3      C       6.6060482058     0.2832631913    -1.2838675514
    4      O       6.4829622313    -0.5767494513    -2.1481419398
    5      H       7.9793676994     1.3687901938    -0.0266147308
    6      H       7.9063127662     1.8899943873    -1.7065965935
    7      H       8.7687029177    -0.4261074970    -2.1665860860
    8      H       9.8546861591     0.5733029211    -1.4839033885
    9      N       5.5650135139     0.6980125226    -0.5230200353
   10      C       4.2847060234     0.0491088893    -0.6085362903
   11      C       3.2769888471     0.8913884716     0.1392834023
   12      O       3.5808634615     1.4761778155     1.1717353622
   13      C       4.3316572552    -1.3503665590     0.0618350659
   14      H       4.7192941058    -1.2070897721     1.0730311261
   15      H       5.0661636853    -1.9421897000    -0.4917131893
   16      C       3.0180083095    -2.0264361520     0.1597428066
   17      N       2.3465529170    -2.5619929141    -0.9195374265
   18      C       1.1520667738    -3.0314414018    -0.4710530081
   19      H       0.4356969781    -3.5003383417    -1.1265117952
   20      N       0.9976437323    -2.8257708737     0.8147351520
   21      C       2.1515035548    -2.1939758243     1.2091726097
   22      H       2.3106540279    -1.9083411893     2.2376005168
   23      H       2.6992541122    -2.6425748119    -1.8584005002
   24      H       5.7029511790     1.2704896127     0.2980677927
   25      H       4.0215362290    -0.0611339728    -1.6636170209
   26      N       2.0261499504     0.8756628601    -0.3743180112
   27      C       0.8773390271     1.1659462067     0.4492215170
   28      C      -0.1618015591     0.1083010864     0.1197724462
   29      O      -0.2442763964    -0.3574166944    -1.0141453097
   30      H       1.1793435926     1.1213067016     1.4987620833
   31      C       0.3639494626     2.5706560069     0.1463734970
   32      H       1.1447548835     3.2909740851     0.3829695873
   33      H       0.0711568253     2.6513903107    -0.8981723721
   34      O      -0.7453805126     2.8988890356     0.9996859089
   35      H       1.8146206566     0.2775185783    -1.1643268473
   36      N      -0.9650893595    -0.2598503742     1.1320231483
   37      C      -1.9766113672    -1.2899602930     0.9459040420
   38      C      -3.1683519048    -0.5790954482     0.3227232640
   39      O      -3.9752895108     0.0473023831     1.0227147237
   40      H      -1.5517985849    -2.0137667799     0.2481467107
   41      H      -0.8080900696     0.0962410980     2.0613176969
   42      C      -2.2841286917    -1.9486084590     2.2769409140
   43      H      -1.3201033104    -2.1410999322     2.7597383583
   44      H      -2.8389605104    -1.2328083228     2.8952354843
   45      C      -3.0509304626    -3.2718622731     2.1942976915
   46      H      -3.1570259199    -3.6060904898     3.2336785459
   47      C      -2.2633691193    -4.3391363930     1.4425281977
   48      H      -2.7114045550    -5.3249636687     1.5879374930
   49      H      -1.2208319137    -4.3791493578     1.7633879336
   50      H      -2.2644843470    -4.1476930480     0.3647368951
   51      C      -4.4509365931    -3.1235762259     1.6122470835
   52      H      -5.0049307968    -4.0605440704     1.7101105426
   53      H      -4.4128390708    -2.8876996052     0.5441752739
   54      H      -5.0203901464    -2.3331275460     2.1063544603
   55      N      -3.2343594897    -0.6511758318    -1.0096687994
   56      C      -4.1712011075     0.1347394225    -1.7639118486
   57      C      -3.9813397009    -0.1555132295    -3.2301695794
   58      O      -3.1486434890    -0.9097212705    -3.6589575954
   59      H      -5.1949401295    -0.1024972480    -1.4564528626
   60      H      -4.0202476354     1.2038301734    -1.5818376921
   61      H      -2.4187887093    -0.9744502383    -1.5197600999
   62      O      -4.8273006489     0.4876152758    -4.0537640757
   63      H      -5.4109352167     1.0698870160    -3.5425814884
   64      C      -1.9695176601     2.6579912349     0.4887386602
   65      C      -3.0439921367     3.0105009020     1.4765599526
   66      C      -4.3189877933     3.4218147176     0.7556188509
   67      H      -2.7115349584     3.8291546729     2.1121493687
   68      H      -3.2088342361     2.1251305043     2.0998544292
   69      O      -5.1097747218     2.4310002848     0.3360629325
   70      H      -4.7417080097     1.5498055641     0.5820636541
   71      O      -2.1599220154     2.1982163321    -0.6141899121
   72      O      -4.5930417393     4.5770708817     0.5588084780
 ----------------------------------------------------------------
 Molecular Point Group                 C1    NOp =  1
 Largest Abelian Subgroup              C1    NOp =  1
 Nuclear Repulsion Energy =  4919.1497471318 hartrees
 There are      147 alpha and      147 beta electrons
 Applying Cartesian multipole field
    Component          Value
    ---------          -----
     (2,0,0)        1.00000E-12
     (0,2,0)        2.00000E-12
     (0,0,2)       -3.00000E-11
 Nucleus-field energy     =    -0.0000000479 hartrees
 Requested basis set is 6-31G(d)
 There are 222 shells and 651 basis functions
 A cutoff of  1.0D-11 yielded  11541 shell pairs
 There are    102914 function pairs
 Smallest overlap matrix eigenvalue = 1.11E-03
 Guess MOs from SCF MO coefficient file

 -----------------------------------------------------------------------
  General SCF calculation program by
  Eric Jon Sundstrom, Paul Horn, Yuezhi Mao, Dmitri Zuev, Alec White,
  David Stuck, Shaama M.S., Shane Yost, Joonho Lee, David Small,
  Daniel Levine, Susi Lehtola, Hugh Burton, Evgeny Epifanovsky
 -----------------------------------------------------------------------
 Exchange:  B97M-V      Correlation:  B97M-V
 Using SG-2 standard quadrature grid
 Nonlocal Correlation:  VV10 with C = 0.0100 and b = 6.00 and scale = 1.00000
 Grid used for NLC:  SG-1 standard quadrature
 using 8 threads for integral computing
 -------------------------------------------------------
 OpenMP Integral computing Module                
 Release: version 1.0, May 2013, Q-Chem Inc. Pittsburgh 
 -------------------------------------------------------
 -------------------------------------------------------
 OpenMP BLAS3 based DFT computing Module                
 Release: version 1.0, May 2013, Q-Chem Inc. Pittsburgh 
 -------------------------------------------------------
 -------------------------------------------------------
 OpenMP BLAS3 based DFT computing Module                
 Release: version 1.0, May 2013, Q-Chem Inc. Pittsburgh 
 -------------------------------------------------------
 -------------------------------------------------------
 OpenMP BLAS3 based DFT computing Module                
 Release: version 1.0, May 2013, Q-Chem Inc. Pittsburgh 
 -------------------------------------------------------
 Nonlocal correlation = 1.090887262714
 A restricted SCF calculation will be
 performed using DIIS
 SCF converges when DIIS error is below 1.0e-08
 ---------------------------------------
  Cycle       Energy         DIIS error
 ---------------------------------------
 Nonlocal correlation = 1.090878191823e+00
    1   -1993.5716254983      1.21e-04  
 Nonlocal correlation = 1.090890112886e+00
    2   -1993.5729146667      1.46e-05  
 Nonlocal correlation = 1.090883049712e+00
    3   -1993.5729060994      1.99e-05  
 Nonlocal correlation = 1.090881587410e+00
    4   -1993.5729212052      9.11e-06  
 Nonlocal correlation = 1.090883304425e+00
    5   -1993.5729246317      2.32e-06  
 Nonlocal correlation = 1.090882943817e+00
    6   -1993.5729248543      6.27e-07  
 Nonlocal correlation = 1.090883033309e+00
    7   -1993.5729248676      3.56e-07  
 Nonlocal correlation = 1.090883035583e+00
    8   -1993.5729248732      1.04e-07  
 Nonlocal correlation = 1.090883027430e+00
    9   -1993.5729248737      2.79e-08  
 Nonlocal correlation = 1.090883027060e+00
   10   -1993.5729248737      1.07e-08  
   11   -1993.5729248737      3.88e-09  Convergence criterion met
 ---------------------------------------
 SCF time:   CPU 20406.37s  wall 2555.00s 
 SCF   energy in the final basis set =    -1993.5729248737
 Total energy in the final basis set =    -1993.5729248737
 
 --------------------------------------------------------------
 
                    Orbital Energies (a.u.)
 --------------------------------------------------------------
 
 Alpha MOs
 -- Occupied --
-19.234 -19.225 -19.190 -19.176 -19.163 -19.161 -19.160 -19.155
-19.137 -19.135 -14.412 -14.401 -14.391 -14.390 -14.380 -14.334
-14.321 -10.340 -10.330 -10.310 -10.309 -10.306 -10.305 -10.290
-10.262 -10.257 -10.251 -10.246 -10.245 -10.245 -10.229 -10.219
-10.213 -10.213 -10.203 -10.196 -10.194 -10.171 -10.168  -1.122
 -1.110  -1.081  -1.062  -1.054  -1.050  -1.036  -1.036  -1.030
 -1.015  -0.999  -0.948  -0.942  -0.938  -0.929  -0.873  -0.872
 -0.811  -0.801  -0.787  -0.766  -0.754  -0.733  -0.727  -0.683
 -0.680  -0.664  -0.653  -0.640  -0.610  -0.605  -0.600  -0.590
 -0.582  -0.581  -0.578  -0.573  -0.567  -0.552  -0.546  -0.526
 -0.518  -0.511  -0.502  -0.498  -0.490  -0.486  -0.483  -0.480
 -0.475  -0.468  -0.464  -0.462  -0.452  -0.450  -0.439  -0.434
 -0.433  -0.427  -0.425  -0.421  -0.418  -0.417  -0.415  -0.409
 -0.405  -0.404  -0.403  -0.396  -0.391  -0.391  -0.389  -0.379
 -0.376  -0.373  -0.372  -0.372  -0.368  -0.365  -0.359  -0.358
 -0.355  -0.350  -0.344  -0.338  -0.338  -0.333  -0.313  -0.308
 -0.305  -0.302  -0.301  -0.284  -0.277  -0.273  -0.268  -0.267
 -0.263  -0.262  -0.259  -0.257  -0.249  -0.247  -0.243  -0.237
 -0.232  -0.214  -0.209
 -- Virtual --
 -0.037  -0.036  -0.030  -0.023  -0.018  -0.010  -0.004  -0.000
  0.025   0.033   0.036   0.041   0.053   0.063   0.070   0.072
  0.075   0.084   0.091   0.100   0.102   0.106   0.112   0.118
  0.119   0.122   0.126   0.129   0.132   0.133   0.136   0.139
  0.141   0.145   0.149   0.152   0.155   0.160   0.162   0.164
  0.168   0.174   0.176   0.178   0.186   0.189   0.193   0.198
  0.199   0.202   0.206   0.212   0.213   0.217   0.221   0.224
  0.227   0.232   0.235   0.247   0.251   0.263   0.270   0.274
  0.276   0.293   0.309   0.320   0.328   0.334   0.338   0.344
  0.350   0.366   0.368   0.376   0.387   0.396   0.407   0.414
  0.423   0.439   0.470   0.493   0.496   0.500   0.506   0.508
  0.509   0.515   0.520   0.526   0.529   0.530   0.539   0.540
  0.552   0.553   0.557   0.563   0.568   0.572   0.575   0.579
  0.579   0.585   0.588   0.593   0.597   0.602   0.606   0.614
  0.622   0.626   0.628   0.637   0.640   0.648   0.650   0.656
  0.666   0.675   0.681   0.685   0.687   0.688   0.692   0.696
  0.701   0.710   0.714   0.718   0.724   0.727   0.731   0.734
  0.737   0.752   0.758   0.760   0.762   0.771   0.775   0.782
  0.787   0.788   0.797   0.798   0.804   0.805   0.812   0.814
  0.820   0.821   0.825   0.828   0.834   0.839   0.846   0.847
  0.850   0.850   0.851   0.860   0.862   0.867   0.869   0.872
  0.881   0.884   0.889   0.891   0.899   0.903   0.908   0.912
  0.914   0.916   0.920   0.924   0.927   0.927   0.929   0.938
  0.942   0.945   0.953   0.960   0.962   0.969   0.975   0.976
  0.981   0.986   0.991   1.001   1.004   1.006   1.009   1.013
  1.022   1.026   1.035   1.053   1.056   1.064   1.071   1.074
  1.081   1.094   1.097   1.111   1.115   1.119   1.122   1.127
  1.130   1.137   1.150   1.153   1.165   1.177   1.184   1.187
  1.197   1.202   1.221   1.225   1.232   1.243   1.248   1.255
  1.265   1.272   1.276   1.286   1.292   1.303   1.309   1.318
  1.321   1.327   1.335   1.344   1.346   1.350   1.367   1.373
  1.382   1.388   1.392   1.396   1.410   1.416   1.418   1.426
  1.445   1.447   1.462   1.465   1.467   1.479   1.488   1.501
  1.507   1.515   1.523   1.535   1.552   1.555   1.559   1.559
  1.569   1.580   1.597   1.601   1.611   1.619   1.627   1.640
  1.652   1.665   1.675   1.691   1.696   1.702   1.709   1.721
  1.736   1.741   1.742   1.749   1.753   1.760   1.762   1.765
  1.770   1.774   1.782   1.786   1.790   1.799   1.803   1.810
  1.823   1.824   1.827   1.831   1.839   1.849   1.853   1.859
  1.863   1.868   1.869   1.883   1.886   1.889   1.893   1.896
  1.899   1.903   1.911   1.913   1.914   1.931   1.932   1.947
  1.948   1.953   1.963   1.972   1.976   1.981   1.985   1.990
  1.994   2.008   2.011   2.015   2.027   2.037   2.038   2.044
  2.049   2.053   2.063   2.064   2.076   2.085   2.088   2.091
  2.098   2.101   2.108   2.117   2.127   2.129   2.132   2.135
  2.140   2.155   2.158   2.165   2.175   2.190   2.200   2.210
  2.213   2.220   2.228   2.236   2.249   2.250   2.264   2.275
  2.278   2.286   2.292   2.306   2.312   2.324   2.345   2.352
  2.359   2.367   2.377   2.393   2.401   2.407   2.415   2.419
  2.435   2.448   2.451   2.456   2.464   2.472   2.479   2.485
  2.497   2.509   2.523   2.538   2.546   2.550   2.557   2.560
  2.574   2.578   2.588   2.601   2.613   2.645   2.654   2.675
  2.688   2.691   2.698   2.702   2.706   2.718   2.723   2.731
  2.748   2.752   2.761   2.766   2.774   2.779   2.788   2.800
  2.806   2.818   2.826   2.844   2.848   2.867   2.891   2.898
  2.931   2.938   2.955   2.983   2.998   3.018   3.048   3.057
  3.060   3.067   3.070   3.088   3.094   3.105   3.117   3.146
  3.152   3.169   3.182   3.193   3.217   3.225   3.264   3.272
  3.280   3.916   3.999   4.076   4.108   4.143   4.161   4.174
  4.195   4.217   4.230   4.238   4.243   4.274   4.286   4.321
  4.351   4.367   4.385   4.396   4.403   4.430   4.443   4.480
  4.488   4.514   4.523   4.561   4.601   4.614   4.637   4.662
  4.703   4.724   4.759   4.775   4.820   4.855   4.869   4.912
 --------------------------------------------------------------
 
          Ground-State Mulliken Net Atomic Charges

     Atom                 Charge (a.u.)
  ----------------------------------------
      1 N                    -0.739112
      2 C                    -0.235732
      3 C                     0.650978
      4 O                    -0.536799
      5 H                     0.154009
      6 H                     0.156011
      7 H                     0.328099
      8 H                     0.310059
      9 N                    -0.651179
     10 C                    -0.051963
     11 C                     0.647623
     12 O                    -0.536634
     13 C                    -0.383277
     14 H                     0.185842
     15 H                     0.206858
     16 C                     0.279633
     17 N                    -0.624260
     18 C                     0.225099
     19 H                     0.174019
     20 N                    -0.441654
     21 C                    -0.085767
     22 H                     0.151974
     23 H                     0.365022
     24 H                     0.361218
     25 H                     0.175151
     26 N                    -0.635172
     27 C                    -0.083605
     28 C                     0.670838
     29 O                    -0.549937
     30 H                     0.192295
     31 C                    -0.060257
     32 H                     0.198545
     33 H                     0.202811
     34 O                    -0.485305
     35 H                     0.367664
     36 N                    -0.640412
     37 C                    -0.051132
     38 C                     0.694044
     39 O                    -0.596361
     40 H                     0.192139
     41 H                     0.355715
     42 C                    -0.325717
     43 H                     0.166601
     44 H                     0.159484
     45 C                    -0.101466
     46 H                     0.144729
     47 C                    -0.478078
     48 H                     0.154009
     49 H                     0.183810
     50 H                     0.140462
     51 C                    -0.475360
     52 H                     0.156494
     53 H                     0.144573
     54 H                     0.167887
     55 N                    -0.618256
     56 C                    -0.298788
     57 C                     0.651606
     58 O                    -0.448579
     59 H                     0.202813
     60 H                     0.235104
     61 H                     0.394955
     62 O                    -0.577122
     63 H                     0.431374
     64 C                     0.676655
     65 C                    -0.536619
     66 C                     0.633938
     67 H                     0.217768
     68 H                     0.217042
     69 O                    -0.624782
     70 H                     0.480954
     71 O                    -0.478536
     72 O                    -0.454042
  ----------------------------------------
  Sum of atomic charges =     0.000000

 -----------------------------------------------------------------
                    Cartesian Multipole Moments
 -----------------------------------------------------------------
    Charge (ESU x 10^10)
                 0.0000
    Dipole Moment (Debye)
         X       2.8945      Y      -1.8571      Z       1.5426
       Tot       3.7692
    Quadrupole Moments (Debye-Ang)
        XX    -231.9918     XY      30.6740     YY    -243.3870
        XZ      -8.0056     YZ      -3.1933     ZZ    -232.6799
    Octopole Moments (Debye-Ang^2)
       XXX      94.6105    XXY      41.9187    XYY     108.0376
       YYY     -57.0218    XXZ     -69.3322    XYZ      14.0105
       YYZ     -12.1287    XZZ      14.4602    YZZ      35.7673
       ZZZ     138.4614
    Hexadecapole Moments (Debye-Ang^3)
      XXXX  -19986.2867   XXXY    2030.6437   XXYY   -5010.3483
      XYYY     953.5865   YYYY   -6694.5703   XXXZ     465.4715
      XXYZ    -243.5739   XYYZ     152.1192   YYYZ     246.6181
      XXZZ   -3948.6209   XYZZ     -19.5164   YYZZ   -1499.2707
      XZZZ     369.1375   YZZZ     143.0043   ZZZZ   -3556.4632
 -----------------------------------------------------------------
 Calculating analytic gradient of the SCF energy
