
Running Job 1 of 1 GHSLG_terahedral_malonyl_b97m.in
qchem GHSLG_terahedral_malonyl_b97m.in_822.0 /scr/c295_krishna/157322/qchem822/ 1
/usr/software/qchem_511/exe/qcprog.exe_s GHSLG_terahedral_malonyl_b97m.in_822.0 /scr/c295_krishna/157322/qchem822/
Check license passed

                  Welcome to Q-Chem
     A Quantum Leap Into The Future Of Chemistry


 Q-Chem 5.1, Q-Chem, Inc., Pleasanton, CA (2018)

 Yihan Shao,  Zhengting Gan,  E. Epifanovsky,  A. T. B. Gilbert,  M. Wormit,  
 J. Kussmann,  A. W. Lange,  A. Behn,  Jia Deng,  Xintian Feng,  D. Ghosh,  
 M. Goldey,  P. R. Horn,  L. D. Jacobson,  I. Kaliman,  T. Kus,  A. Landau,  
 Jie Liu,  E. I. Proynov,  R. M. Richard,  R. P. Steele,  E. J. Sundstrom,  
 H. L. Woodcock III,  P. M. Zimmerman,  D. Zuev,  B. Albrecht,  E. Alguire,  
 S. A. Baeppler,  D. Barton,  Z. Benda,  Y. A. Bernard,  E. J. Berquist,  
 K. B. Bravaya,  H. Burton,  D. Casanova,  Chun-Min Chang,  Yunqing Chen,  
 A. Chien,  K. D. Closser,  M. P. Coons,  S. Coriani,  S. Dasgupta,  
 A. L. Dempwolff,  M. Diedenhofen,  Hainam Do,  R. G. Edgar,  Po-Tung Fang,  
 S. Faraji,  S. Fatehi,  Qingguo Feng,  K. D. Fenk,  J. Fosso-Tande,  
 Qinghui Ge,  A. Ghysels,  G. Gidofalvi,  J. Gomes,  J. Gonthier,  A. Gunina,  
 D. Hait,  M. W. D. Hanson-Heine,  P. H. P. Harbach,  A. W. Hauser,  
 J. E. Herr,  E. G. Hohenstein,  Z. C. Holden,  Kerwin Hui,  B. C. Huynh,  
 T.-C. Jagau,  Hyunjun Ji,  B. Kaduk,  K. Khistyaev,  Jaehoon Kim,  
 P. Klunzinger,  K. Koh,  D. Kosenkov,  L. Koulias,  T. Kowalczyk,  
 C. M. Krauter,  A. Kunitsa,  Ka Un Lao,  A. Laurent,  K. V. Lawler,  
 Joonho Lee,  D. Lefrancois,  S. Lehtola,  D. S. Levine,  Yi-Pei Li,  
 You-Sheng Lin,  Fenglai Liu,  E. Livshits,  A. Luenser,  P. Manohar,  
 E. Mansoor,  S. F. Manzer,  Shan-Ping Mao,  Yuezhi Mao,  N. Mardirossian,  
 A. V. Marenich,  T. Markovich,  L. A. Martinez-Martinez,  S. A. Maurer,  
 N. J. Mayhall,  S. C. McKenzie,  J.-M. Mewes,  A. F. Morrison,  
 J. W. Mullinax,  K. Nanda,  T. S. Nguyen-Beck,  R. Olivares-Amaya,  
 J. A. Parkhill,  T. M. Perrine,  F. Plasser,  P. Pokhilko,  S. Prager,  
 A. Prociuk,  E. Ramos,  D. R. Rehn,  F. Rob,  M. Schneider,  N. Sergueev,  
 S. M. Sharada,  S. Sharma,  D. W. Small,  T. Stauch,  T. Stein,  
 Yu-Chuan Su,  A. J. W. Thom,  A. Tkatchenko,  T. Tsuchimochi,  N. M. Tubman,  
 L. Vogt,  M. L. Vidal,  O. Vydrov,  M. A. Watson,  J. Wenzel,  
 M. de Wergifosse,  T. A. Wesolowski,  A. White,  J. Witte,  A. Yamada,  
 Jun Yang,  K. Yao,  S. Yeganeh,  S. R. Yost,  Zhi-Qiang You,  A. Zech,  
 Igor Ying Zhang,  Xing Zhang,  Yan Zhao,  Ying Zhu,  B. R. Brooks,  
 G. K. L. Chan,  C. J. Cramer,  M. S. Gordon,  W. J. Hehre,  A. Klamt,  
 M. W. Schmidt,  C. D. Sherrill,  D. G. Truhlar,  A. Aspuru-Guzik,  R. Baer,  
 A. T. Bell,  N. A. Besley,  Jeng-Da Chai,  A. E. DePrince, III,  
 R. A. DiStasio Jr.,  A. Dreuw,  B. D. Dunietz,  T. R. Furlani,  
 Chao-Ping Hsu,  Yousung Jung,  Jing Kong,  D. S. Lambrecht,  WanZhen Liang,  
 C. Ochsenfeld,  V. A. Rassolov,  L. V. Slipchenko,  J. E. Subotnik,  
 T. Van Voorhis,  J. M. Herbert,  A. I. Krylov,  P. M. W. Gill,  M. Head-Gordon

 Contributors to earlier versions of Q-Chem not listed above: 
 R. D. Adamson,  B. Austin,  J. Baker,  G. J. O. Beran,  K. Brandhorst,  
 S. T. Brown,  E. F. C. Byrd,  A. K. Chakraborty,  C.-L. Cheng,  
 Siu Hung Chien,  D. M. Chipman,  D. L. Crittenden,  H. Dachsel,  
 R. J. Doerksen,  A. D. Dutoi,  L. Fusti-Molnar,  W. A. Goddard III,  
 A. Golubeva-Zadorozhnaya,  S. R. Gwaltney,  G. Hawkins,  A. Heyden,  
 S. Hirata,  G. Kedziora,  F. J. Keil,  C. Kelley,  Jihan Kim,  R. A. King,  
 R. Z. Khaliullin,  P. P. Korambath,  W. Kurlancheek,  A. M. Lee,  M. S. Lee,  
 S. V. Levchenko,  Ching Yeh Lin,  D. Liotard,  R. C. Lochan,  I. Lotan,  
 P. E. Maslen,  N. Nair,  D. P. O'Neill,  D. Neuhauser,  E. Neuscamman,  
 C. M. Oana,  R. Olson,  B. Peters,  R. Peverati,  P. A. Pieniazek,  
 Y. M. Rhee,  J. Ritchie,  M. A. Rohrdanz,  E. Rosta,  N. J. Russ,  
 H. F. Schaefer III,  N. E. Schultz,  N. Shenvi,  A. C. Simmonett,  A. Sodt,  
 D. Stuck,  K. S. Thanthiriwatte,  V. Vanovschi,  Tao Wang,  A. Warshel,  
 C. F. Williams,  Q. Wu,  X. Xu,  W. Zhang

 Please cite Q-Chem as follows:
 Y. Shao et al., Mol. Phys. 113, 184-215 (2015)
 DOI: 10.1080/00268976.2014.952696

 Q-Chem 5.1.1 for Intel X86 EM64T Linux

 Parts of Q-Chem use Armadillo 8.300.2 (Tropical Shenanigans).
 http://arma.sourceforge.net/

 Q-Chem begins on Tue Nov 27 23:46:15 2018  

Host: cub-0-30.local
0

     Scratch files written to /scr/c295_krishna/157322/qchem822//
 Aug318 |scratch|qcdevops|jenkins|workspace|build_RNUM -1
Processing $rem in /usr/software/qchem_511/config/preferences.
 MEM_TOTAL  2000 
Input Ideriv = 2
Curr. Ideriv = -1
Max.  Ideriv = 2
Input Ideriv = 1
Curr. Ideriv = 2
Max.  Ideriv = 1

Checking the input file for inconsistencies... 	...done.

--------------------------------------------------------------
User input:
--------------------------------------------------------------
$comment
GHSLG peptide geom opt with no constraints.
$end

$molecule
0 1
N    9.0588730    0.5041320   -0.0330530
C    7.8976510    1.3430080   -0.3117680
C    6.7221510    0.4924350   -0.7184050
O    6.8140660   -0.1968290   -1.7244010
H    7.6550750    1.9325830    0.5986220
H    8.1350090    2.0571830   -1.1310170
H    9.3524590    0.0158020   -0.9105130
H    9.8492170    1.1211410    0.2638250
N    5.5679580    0.5117030    0.0083580
C    4.3901480   -0.2734430   -0.3460050
C    3.2245520    0.1053890    0.5515570
O    3.3095410   -0.0836300    1.7576790
C    4.6692310   -1.7898770   -0.2230110
H    4.9765860   -2.0226530    0.8203820
H    5.4937220   -2.0971360   -0.8967680
C    3.4564420   -2.6025010   -0.5813420
N    2.8465170   -2.5883380   -1.7775170
C    1.8130200   -3.4424460   -1.6627190
H    1.1156730   -3.6570140   -2.4615080
N    1.7435130   -4.0012870   -0.4361430
C    2.7792520   -3.4726130    0.2450580
H    3.0183180   -3.7050730    1.2743780
H    3.1118830   -2.0324610   -2.6204790
H    5.5182540    1.1378470    0.8274040
H    4.1216430   -0.0381340   -1.3999450
N    2.0942250    0.6387540    0.0091830
C    0.9138360    0.9987510    0.7850770
C   -0.2897980    0.2063100    0.3001390
O   -0.1948380   -0.4883740   -0.7032910
H    1.0598870    0.7507660    1.8594640
C    0.7002330    2.5160940    0.6496910
H    1.5942250    2.9871870    1.1057910
H    0.6290360    2.7596580   -0.4335660
O   -0.4868910    2.9251440    1.2930600
H    2.0620450    0.7989830   -1.0100070
N   -1.4565340    0.2396400    1.0065050
C   -2.6601950   -0.4813750    0.6178360
C   -3.7789600    0.5250120    0.4632380
O   -4.1182120    1.1877860    1.4346840
H   -2.4933320   -1.0019360   -0.3476740
H   -1.4912040    0.7838330    1.8820180
C   -2.9570600   -1.5584960    1.6915790
H   -2.0352130   -2.1762160    1.7803530
H   -3.1115920   -1.0683470    2.6782790
C   -4.1240300   -2.5509860    1.4342510
H   -4.0869080   -3.2893130    2.2663440
C   -3.9493730   -3.3267370    0.1215220
H   -4.7425650   -4.0986750    0.0265410
H   -2.9642130   -3.8397340    0.1062620
H   -4.0215170   -2.6515090   -0.7564760
C   -5.5122090   -1.9021470    1.4976570
H   -6.2967740   -2.6856450    1.4278450
H   -5.6782540   -1.1973730    0.6641640
H   -5.6427140   -1.3690560    2.4631380
N   -4.3894930    0.7014900   -0.7430790
C   -5.4603550    1.6611540   -0.9635930
C   -6.7179330    0.9832190   -1.4447010
O   -6.7594810   -0.2283550   -1.5936490
H   -5.7049470    2.2234500   -0.0372840
H   -5.1319210    2.3924430   -1.7319410
H   -4.0783590    0.1392810   -1.5499840
O   -7.8172280    1.7168400   -1.7168600
H   -7.8230830    2.6783100   -1.6087460
C   -0.5726440    4.3242990    1.5472460
C   -2.0903960    4.6071290    1.6904380
C   -2.5146220    6.0320390    1.9682400
H   -2.4899630    3.9703590    2.5097970
H   -2.5895820    4.2958110    0.7463070
O   -3.8319510    6.3016760    2.0851860
H   -4.1523280    7.1994930    2.2520390
O   -1.7024890    6.9387380    2.0747500
O    0.0623690    4.5947920    2.7743390
H    0.1180630    5.5765140    2.8893500
C    5.6098510    8.5687330    1.6192730
C    4.1681800    8.4563840    1.2211970
H    5.9181030    9.6336180    1.6914920
H    6.2465470    8.0621720    0.8639670
H    5.7618810    8.0852630    2.6071920
N    3.5982140    7.2307500    1.0778170
C    2.2041650    7.0683020    0.7025330
H    4.1799310    6.3944910    1.2465130
C    1.8362230    5.5883440    0.6206840
H    2.0283100    7.5431570   -0.2873790
H    1.5591650    7.5611810    1.4627890
S    0.0712340    5.3903310    0.1467720
H    2.0608630    5.1318500    1.6031760
H    2.4643210    5.0724510   -0.1363220
O    3.5158320    9.4731990    1.0301260


$end

$rem
JOBTYPE           opt
EXCHANGE        B97M-V
BASIS             6-31G*
--------------------------------------------------------------
 ----------------------------------------------------------------
             Standard Nuclear Orientation (Angstroms)
    I     Atom           X                Y                Z
 ----------------------------------------------------------------
    1      N       8.0508684670    -3.5551502194     0.0833985825
    2      C       7.1516293429    -2.5013953930    -0.3757324352
    3      C       5.7853440121    -3.0674293556    -0.6646931181
    4      O       5.6738296151    -3.9237881731    -1.5305887792
    5      H       7.0898309861    -1.7164768434     0.4087008520
    6      H       7.5580832416    -2.0333552798    -1.2994679794
    7      H       8.1893825982    -4.2518283482    -0.6847474974
    8      H       8.9819132285    -3.1276437310     0.2928601438
    9      N       4.6899223198    -2.6134221631     0.0095812923
   10      C       3.3397169983    -3.1075545261    -0.2395021693
   11      C       2.3320608141    -2.2794507207     0.5393549197
   12      O       2.3826139085    -2.2667209709     1.7620420953
   13      C       3.2055319059    -4.5967152567     0.1567068672
   14      H       3.4560714376    -4.7134361006     1.2341700463
   15      H       3.9071917366    -5.2266168151    -0.4255641229
   16      C       1.8142205496    -5.1082993531    -0.0925930559
   17      N       1.2113254681    -5.1455221637    -1.2918326942
   18      C      -0.0107996340    -5.6599281822    -1.0625036981
   19      H      -0.7527142423    -5.8200240980    -1.8334305061
   20      N      -0.2075651317    -5.9529535826     0.2402021872
   21      C       0.9424344561    -5.6060065858     0.8512791104
   22      H       1.1270359620    -5.7067920452     1.9126246911
   23      H       1.6021076544    -4.8391319882    -2.2102104105
   24      H       4.8222806356    -1.8613176172     0.7039753985
   25      H       3.1271199896    -3.0006270607    -1.3265273820
   26      N       1.3768007687    -1.5702589989    -0.1245820153
   27      C       0.3479282557    -0.7777018065     0.5373862462
   28      C      -1.0311812221    -1.2950995489     0.1602668580
   29      O      -1.1411686069    -2.1569467058    -0.7020540101
   30      H       0.4394751513    -0.8604816663     1.6427828000
   31      C       0.5452517917     0.6927257708     0.1309486100
   32      H       1.5397186802     0.9827445512     0.5260463644
   33      H       0.5245077963     0.7498583700    -0.9799716013
   34      O      -0.4791121345     1.5099935299     0.6536922572
   35      H       1.3724092792    -1.5910646463    -1.1565728005
   36      N      -2.1352564118    -0.8280623460     0.8115969856
   37      C      -3.4937852236    -1.2606596480     0.5166646771
   38      C      -4.3054019695    -0.0373922196     0.1516365725
   39      O      -4.4398300856     0.8534172122     0.9801631341
   40      H      -3.4873804572    -1.9698728482    -0.3365716274
   41      H      -2.0094050998    -0.1475657380     1.5764217086
   42      C      -4.0504796290    -2.0115642626     1.7525757198
   43      H      -3.3258315115    -2.8259490732     1.9782374110
   44      H      -4.0527897185    -1.3306762715     2.6323991556
   45      C      -5.4440817999    -2.6877953799     1.6357102158
   46      H      -5.5923111992    -3.2493398637     2.5852255661
   47      C      -5.5038424668    -3.7026084410     0.4858688256
   48      H      -6.4758077567    -4.2402712217     0.5021606837
   49      H      -4.6918698925    -4.4530725763     0.5928414172
   50      H      -5.4069408984    -3.1997120205    -0.4988765085
   51      C      -6.6073297818    -1.6930126361     1.5391973668
   52      H      -7.5736707231    -2.2394462536     1.5825627622
   53      H      -6.5923068203    -1.1292680816     0.5900112407
   54      H      -6.5753559225    -0.9815885079     2.3913854404
   55      N      -4.8656890151     0.0775454490    -1.0860885553
   56      C      -5.6446759288     1.2320996232    -1.5062205431
   57      C      -7.0451166862     0.8382107298    -1.9014172318
   58      O      -7.4111303250    -0.3252614129    -1.8366878749
   59      H      -5.7154503317     1.9945352223    -0.7014017171
   60      H      -5.1450875212     1.7012147105    -2.3799216366
   61      H      -4.7288798085    -0.6812553235    -1.7712773128
   62      O      -7.9126967324     1.7769484978    -2.3336163252
   63      H      -7.6598096444     2.7087654837    -2.3961679394
   64      C      -0.1839832304     2.9037275843     0.6554611650
   65      C      -1.5685750382     3.6002958571     0.6974856620
   66      C      -1.5923231845     5.1125312249     0.7069923140
   67      H      -2.1106464259     3.2487035325     1.6024831422
   68      H      -2.1477041687     3.2700554407    -0.1930420593
   69      O      -2.7877406354     5.7387001085     0.7320087136
   70      H      -2.8539764301     6.7041819531     0.7282221063
   71      O      -0.5659293524     5.7749057726     0.6790079204
   72      O       0.5196085868     3.2095095341     1.8359784913
   73      H       0.8373193055     4.1453948864     1.7786553397
   74      C       6.9079263968     5.2962728880     0.1819665989
   75      C       5.4824935723     5.5019618603    -0.2367640800
   76      H       7.4905197824     6.2362727044     0.0761354367
   77      H       7.3741097067     4.5129042806    -0.4516576930
   78      H       6.9409624897     4.9733995845     1.2438054562
   79      N       4.6036625510     4.4665056128    -0.1812288391
   80      C       3.2110955596     4.6161263556    -0.5671962672
   81      H       4.9434792825     3.5495902793     0.1503929089
   82      C       2.4599683047     3.2969651546    -0.3999305249
   83      H       3.1527704556     4.9368101680    -1.6302569873
   84      H       2.7333351240     5.3896160574     0.0734304116
   85      S       0.6989213438     3.4938757001    -0.8887328782
   86      H       2.5700860361     2.9794029412     0.6541893723
   87      H       2.9153475211     2.5067354312    -1.0338686312
   88      O       5.1224931228     6.6047455709    -0.6243805765
 ----------------------------------------------------------------
 Molecular Point Group                 C1    NOp =  1
 Largest Abelian Subgroup              C1    NOp =  1
 Nuclear Repulsion Energy =  6207.1486039643 hartrees
 There are      179 alpha and      179 beta electrons
 Requested basis set is 6-31G(d)
 There are 269 shells and 778 basis functions

 Total QAlloc Memory Limit   2000 MB
 Mega-Array Size       188 MB
 MEM_STATIC part       192 MB
 A cutoff of  1.0D-11 yielded  12368 shell pairs
 There are    105046 function pairs
 
 -------------------------------------------------------
 OpenMP Integral Computing Module                       
 Release: version 1.0, May 2013, Q-Chem Inc. Pittsburgh 
 -------------------------------------------------------
 Integral Job Info:
 Integral job number is                      11
 Integral operator is                         1
 short-range coefficients                     0
 long-range coefficients              100000000
 Omega coefficients                           0
 if combine SR and LR in K                    0
 Integral screening is                        0
 Integral computing path is                   2
 max size of driver memory is            800000
 size of driver memory is                593474
 size of scratch memory is             15267112
 max col of scratch BK array               1296
 max len of scratch array in speh3          155
 max len of scratch index in speh4           18
 max int batch size is                      520
 min int batch size is                       52
 fixed nKL is                                52
 max L of basis functions is                  2
 order of int derivative is                   0
 number of shells is                        269
 number of basis is                         778
 number of cartesian basis is               778
 number of contracted shell pairs         12368
 number of primitive shell pairs          38636
 maxK2 (contraction) of shell pair           36
 max number of K2 of shell pair               1
 max number of CS2 of shell pair           1507
 max number of PS2 of shell pair           6300
 mem total for path MDJ                  731660
 -------------------------------------------------------
 Smallest overlap matrix eigenvalue = 1.22E-03

 Scale SEOQF with 1.000000e-02/1.000000e-02/1.000000e-01

 Standard Electronic Orientation quadrupole field applied
 Nucleus-field energy     =     0.0000000121 hartrees
 Guess from superposition of atomic densities
 Warning:  Energy on first SCF cycle will be non-variational
 SAD guess density has 358.000001 electrons

 -----------------------------------------------------------------------
  General SCF calculation program by
  Eric Jon Sundstrom, Paul Horn, Yuezhi Mao, Dmitri Zuev, Alec White,
  David Stuck, Shaama M.S., Shane Yost, Joonho Lee, David Small,
  Daniel Levine, Susi Lehtola, Hugh Burton, Evgeny Epifanovsky
 -----------------------------------------------------------------------
 Exchange:  B97M-V      Correlation:  B97M-V
 Using SG-2 standard quadrature grid
 Nonlocal Correlation:  VV10 with C = 0.0100 and b = 6.00 and scale = 1.00000
 Grid used for NLC:  SG-1 standard quadrature
 using 8 threads for integral computing
 -------------------------------------------------------
 OpenMP Integral computing Module                
 Release: version 1.0, May 2013, Q-Chem Inc. Pittsburgh 
 -------------------------------------------------------
 -------------------------------------------------------
 OpenMP BLAS3 based DFT computing Module                
 Release: version 1.0, May 2013, Q-Chem Inc. Pittsburgh 
 -------------------------------------------------------
 -------------------------------------------------------
 OpenMP BLAS3 based DFT computing Module                
 Release: version 1.0, May 2013, Q-Chem Inc. Pittsburgh 
 -------------------------------------------------------
 -------------------------------------------------------
 OpenMP BLAS3 based DFT computing Module                
 Release: version 1.0, May 2013, Q-Chem Inc. Pittsburgh 
 -------------------------------------------------------
 Nonlocal correlation = 1.303265448910
 A restricted SCF calculation will be
 performed using DIIS
 SCF converges when DIIS error is below 1.0e-08
 ---------------------------------------
  Cycle       Energy         DIIS error
 ---------------------------------------
 Nonlocal correlation = 1.363292413405e+00
    1   -2687.4792868811      2.84e-02  
 Nonlocal correlation = 1.325090429373e+00
    2   -2678.2989748161      3.92e-03  
 Nonlocal correlation = 1.343810263476e+00
    3   -2675.5042488011      7.62e-03  
 Nonlocal correlation = 1.346224014646e+00
    4   -2679.0680137710      1.84e-03  
 Nonlocal correlation = 1.346228439066e+00
    5   -2679.2919090718      4.01e-04  
 Nonlocal correlation = 1.346127661107e+00
    6   -2679.2993919181      2.01e-04  
 Nonlocal correlation = 1.346094591177e+00
    7   -2679.3020223222      6.06e-05  
 Nonlocal correlation = 1.346091969579e+00
    8   -2679.3022179561      2.95e-05  
 Nonlocal correlation = 1.346096580264e+00
    9   -2679.3022719496      7.09e-06  
 Nonlocal correlation = 1.346098104539e+00
   10   -2679.3022748958      2.34e-06  
 Nonlocal correlation = 1.346097478322e+00
   11   -2679.3022751949      1.10e-06  
 Nonlocal correlation = 1.346097412586e+00
   12   -2679.3022752747      3.65e-07  
 Nonlocal correlation = 1.346097465449e+00
   13   -2679.3022752827      1.34e-07  
 Nonlocal correlation = 1.346097455774e+00
   14   -2679.3022752838      4.84e-08  
 Nonlocal correlation = 1.346097445955e+00
   15   -2679.3022752839      1.45e-08  
   16   -2679.3022752840      5.76e-09  Convergence criterion met
 ---------------------------------------
 SCF time:   CPU 42777.28s  wall 5362.00s 
 SCF   energy in the final basis set =    -2679.3022752840
 Total energy in the final basis set =    -2679.3022752840
 
 --------------------------------------------------------------
 
                    Orbital Energies (a.u.)
 --------------------------------------------------------------
 
 Alpha MOs
 -- Occupied --
-88.975 -19.228 -19.222 -19.210 -19.199 -19.161 -19.160 -19.136
-19.133 -19.128 -19.127 -19.118 -14.398 -14.392 -14.391 -14.383
-14.377 -14.375 -14.333 -14.302 -10.353 -10.340 -10.334 -10.297
-10.291 -10.288 -10.286 -10.281 -10.262 -10.261 -10.253 -10.252
-10.241 -10.239 -10.237 -10.228 -10.226 -10.217 -10.197 -10.195
-10.193 -10.187 -10.186 -10.171 -10.168 -10.160  -7.982  -5.854
 -5.850  -5.842  -1.105  -1.105  -1.089  -1.041  -1.037  -1.031
 -1.029  -1.026  -1.020  -1.018  -1.014  -0.995  -0.924  -0.922
 -0.916  -0.913  -0.911  -0.868  -0.846  -0.801  -0.789  -0.782
 -0.775  -0.757  -0.748  -0.729  -0.716  -0.711  -0.692  -0.672
 -0.664  -0.647  -0.640  -0.632  -0.628  -0.615  -0.605  -0.591
 -0.584  -0.577  -0.570  -0.560  -0.558  -0.557  -0.553  -0.538
 -0.530  -0.519  -0.517  -0.501  -0.494  -0.492  -0.486  -0.481
 -0.477  -0.475  -0.472  -0.468  -0.461  -0.458  -0.456  -0.452
 -0.448  -0.445  -0.443  -0.441  -0.439  -0.423  -0.422  -0.419
 -0.415  -0.412  -0.410  -0.405  -0.405  -0.401  -0.396  -0.394
 -0.388  -0.387  -0.385  -0.382  -0.379  -0.377  -0.374  -0.372
 -0.370  -0.369  -0.366  -0.365  -0.364  -0.360  -0.358  -0.358
 -0.357  -0.351  -0.346  -0.344  -0.339  -0.337  -0.331  -0.327
 -0.321  -0.321  -0.311  -0.302  -0.300  -0.295  -0.291  -0.286
 -0.280  -0.274  -0.258  -0.256  -0.250  -0.246  -0.245  -0.240
 -0.240  -0.235  -0.232  -0.230  -0.225  -0.221  -0.220  -0.219
 -0.213  -0.211  -0.179
 -- Virtual --
 -0.032  -0.030  -0.022  -0.018  -0.016  -0.007  -0.002   0.006
  0.017   0.021   0.024   0.024   0.035   0.036   0.042   0.046
  0.050   0.056   0.065   0.069   0.072   0.074   0.076   0.083
  0.086   0.092   0.097   0.101   0.108   0.110   0.113   0.117
  0.119   0.120   0.123   0.126   0.127   0.130   0.133   0.134
  0.137   0.138   0.142   0.143   0.149   0.151   0.154   0.155
  0.158   0.162   0.167   0.170   0.173   0.174   0.177   0.180
  0.183   0.186   0.190   0.193   0.194   0.199   0.208   0.211
  0.213   0.217   0.218   0.223   0.228   0.231   0.232   0.238
  0.241   0.242   0.250   0.251   0.256   0.261   0.272   0.283
  0.292   0.302   0.304   0.319   0.328   0.337   0.342   0.345
  0.349   0.359   0.361   0.366   0.387   0.394   0.401   0.406
  0.412   0.418   0.430   0.442   0.445   0.478   0.483   0.490
  0.495   0.502   0.506   0.511   0.517   0.520   0.523   0.524
  0.526   0.532   0.538   0.541   0.543   0.546   0.549   0.553
  0.555   0.559   0.563   0.566   0.570   0.571   0.579   0.581
  0.583   0.586   0.595   0.596   0.602   0.606   0.608   0.617
  0.618   0.620   0.624   0.632   0.637   0.639   0.644   0.647
  0.649   0.652   0.652   0.653   0.660   0.665   0.666   0.668
  0.675   0.676   0.680   0.683   0.688   0.691   0.697   0.701
  0.706   0.712   0.720   0.724   0.730   0.735   0.738   0.744
  0.750   0.753   0.761   0.763   0.770   0.771   0.779   0.779
  0.782   0.787   0.792   0.793   0.795   0.803   0.808   0.810
  0.813   0.818   0.821   0.823   0.826   0.827   0.830   0.832
  0.835   0.837   0.840   0.843   0.847   0.852   0.853   0.856
  0.859   0.862   0.865   0.868   0.870   0.871   0.874   0.875
  0.878   0.879   0.882   0.887   0.890   0.893   0.895   0.896
  0.899   0.903   0.903   0.906   0.909   0.911   0.914   0.918
  0.920   0.921   0.922   0.927   0.931   0.935   0.938   0.940
  0.942   0.945   0.947   0.955   0.957   0.964   0.966   0.969
  0.970   0.975   0.976   0.984   0.991   0.997   0.999   1.002
  1.012   1.015   1.018   1.025   1.029   1.036   1.044   1.050
  1.052   1.054   1.072   1.080   1.082   1.088   1.093   1.106
  1.113   1.124   1.128   1.137   1.143   1.145   1.147   1.155
  1.159   1.165   1.171   1.173   1.182   1.189   1.198   1.209
  1.221   1.229   1.233   1.247   1.254   1.265   1.271   1.272
  1.279   1.287   1.296   1.316   1.323   1.328   1.332   1.343
  1.344   1.346   1.352   1.358   1.368   1.374   1.379   1.382
  1.384   1.397   1.400   1.409   1.411   1.429   1.432   1.446
  1.449   1.457   1.458   1.459   1.472   1.482   1.482   1.491
  1.493   1.502   1.512   1.516   1.520   1.526   1.547   1.559
  1.561   1.563   1.573   1.576   1.581   1.586   1.598   1.607
  1.613   1.614   1.623   1.630   1.647   1.654   1.657   1.668
  1.673   1.682   1.691   1.693   1.706   1.710   1.714   1.720
  1.724   1.727   1.739   1.742   1.744   1.751   1.758   1.765
  1.768   1.776   1.783   1.785   1.794   1.797   1.798   1.806
  1.811   1.815   1.817   1.827   1.835   1.838   1.842   1.844
  1.847   1.854   1.862   1.864   1.868   1.869   1.874   1.877
  1.892   1.897   1.902   1.904   1.909   1.910   1.920   1.926
  1.932   1.938   1.942   1.944   1.954   1.956   1.958   1.961
  1.966   1.969   1.972   1.980   1.984   1.987   1.988   1.993
  1.997   2.000   2.003   2.007   2.015   2.022   2.024   2.027
  2.032   2.044   2.051   2.059   2.065   2.070   2.080   2.087
  2.089   2.094   2.094   2.103   2.108   2.111   2.120   2.130
  2.137   2.140   2.141   2.142   2.143   2.148   2.152   2.155
  2.161   2.171   2.173   2.196   2.202   2.210   2.220   2.223
  2.226   2.238   2.245   2.247   2.264   2.269   2.276   2.284
  2.286   2.291   2.306   2.310   2.310   2.329   2.331   2.348
  2.352   2.363   2.369   2.381   2.390   2.392   2.395   2.407
  2.419   2.425   2.428   2.437   2.446   2.458   2.461   2.467
  2.471   2.475   2.481   2.487   2.489   2.496   2.515   2.516
  2.533   2.541   2.558   2.561   2.576   2.588   2.596   2.606
  2.644   2.649   2.655   2.658   2.660   2.667   2.672   2.672
  2.680   2.687   2.696   2.710   2.717   2.732   2.741   2.749
  2.762   2.763   2.765   2.775   2.789   2.797   2.802   2.806
  2.810   2.840   2.848   2.865   2.882   2.887   2.894   2.917
  2.934   2.954   2.958   2.978   2.989   3.000   3.040   3.045
  3.056   3.060   3.062   3.065   3.081   3.106   3.119   3.136
  3.145   3.146   3.158   3.198   3.216   3.224   3.232   3.253
  3.265   3.887   3.903   3.938   3.954   4.079   4.083   4.095
  4.103   4.104   4.134   4.163   4.180   4.186   4.197   4.219
  4.233   4.261   4.273   4.297   4.312   4.314   4.337   4.341
  4.354   4.354   4.391   4.421   4.438   4.464   4.485   4.493
  4.519   4.538   4.563   4.570   4.593   4.620   4.640   4.646
  4.677   4.704   4.735   4.779   4.809   4.858   4.866
 --------------------------------------------------------------
 
          Ground-State Mulliken Net Atomic Charges

     Atom                 Charge (a.u.)
  ----------------------------------------
      1 N                    -0.730592
      2 C                    -0.227684
      3 C                     0.664261
      4 O                    -0.527425
      5 H                     0.133465
      6 H                     0.151716
      7 H                     0.321373
      8 H                     0.309542
      9 N                    -0.671834
     10 C                     0.004715
     11 C                     0.626453
     12 O                    -0.513772
     13 C                    -0.367708
     14 H                     0.188765
     15 H                     0.199386
     16 C                     0.260676
     17 N                    -0.601992
     18 C                     0.189789
     19 H                     0.160495
     20 N                    -0.439033
     21 C                    -0.042783
     22 H                     0.152228
     23 H                     0.359513
     24 H                     0.346907
     25 H                     0.131183
     26 N                    -0.632731
     27 C                    -0.126980
     28 C                     0.658364
     29 O                    -0.522510
     30 H                     0.223498
     31 C                    -0.016006
     32 H                     0.161107
     33 H                     0.155046
     34 O                    -0.502086
     35 H                     0.347618
     36 N                    -0.638076
     37 C                    -0.070722
     38 C                     0.669774
     39 O                    -0.539815
     40 H                     0.183638
     41 H                     0.356814
     42 C                    -0.284886
     43 H                     0.167007
     44 H                     0.150692
     45 C                    -0.105044
     46 H                     0.138389
     47 C                    -0.458443
     48 H                     0.155333
     49 H                     0.162932
     50 H                     0.135761
     51 C                    -0.468250
     52 H                     0.147749
     53 H                     0.163476
     54 H                     0.149739
     55 N                    -0.626043
     56 C                    -0.273786
     57 C                     0.650847
     58 O                    -0.439786
     59 H                     0.227493
     60 H                     0.183801
     61 H                     0.357695
     62 O                    -0.588928
     63 H                     0.428654
     64 C                     0.390225
     65 C                    -0.436770
     66 C                     0.641089
     67 H                     0.230241
     68 H                     0.199978
     69 O                    -0.610030
     70 H                     0.441115
     71 O                    -0.463455
     72 O                    -0.620896
     73 H                     0.431615
     74 C                    -0.578284
     75 C                     0.632037
     76 H                     0.204306
     77 H                     0.167501
     78 H                     0.170764
     79 N                    -0.646950
     80 C                    -0.079116
     81 H                     0.329491
     82 C                    -0.505705
     83 H                     0.179788
     84 H                     0.183235
     85 S                     0.116370
     86 H                     0.195747
     87 H                     0.176572
     88 O                    -0.507847
  ----------------------------------------
  Sum of atomic charges =     0.000000

 -----------------------------------------------------------------
                    Cartesian Multipole Moments
 -----------------------------------------------------------------
    Charge (ESU x 10^10)
                 0.0000
    Dipole Moment (Debye)
         X       1.8319      Y       6.0209      Z      -3.0890
       Tot       7.0107
    Quadrupole Moments (Debye-Ang)
        XX    -262.2867     XY     -36.7880     YY    -326.5390
        XZ       6.8139     YZ      12.8100     ZZ    -272.6736
    Octopole Moments (Debye-Ang^2)
       XXX     502.8743    XXY     201.6564    XYY    -366.9770
       YYY     113.9939    XXZ      17.2833    XYZ     108.2444
       YYZ       0.4592    XZZ     -46.5069    YZZ      20.8647
       ZZZ     -34.0073
    Hexadecapole Moments (Debye-Ang^3)
      XXXX  -28693.0981   XXXY   -1297.5583   XXYY   -8583.3698
      XYYY   -2419.8042   YYYY  -24003.6638   XXXZ    -252.9149
      XXYZ    -141.6547   XYYZ     386.0833   YYYZ     797.0521
      XXZZ   -5415.3642   XYZZ     -88.7804   YYZZ   -3694.3766
      XZZZ     110.6885   YZZZ      83.5080   ZZZZ   -1983.7842
 -----------------------------------------------------------------
 Calculating analytic gradient of the SCF energy
 Gradient of SCF Energy
            1           2           3           4           5           6
    1  -0.0159735  -0.0102651   0.0107403  -0.0009193  -0.0036965   0.0128697
    2   0.0088333  -0.0141377   0.0088617   0.0058124   0.0065212  -0.0028155
    3   0.0003957  -0.0071320   0.0121045   0.0047372   0.0063530  -0.0039777
            7           8           9          10          11          12
    1   0.0036474   0.0216416  -0.0106909  -0.0036447   0.0068451  -0.0060636
    2  -0.0191421   0.0117903  -0.0248498   0.0042321  -0.0060955   0.0001361
    3  -0.0159869   0.0091880  -0.0170689   0.0182028  -0.0219730  -0.0018979
           13          14          15          16          17          18
    1   0.0064491   0.0048548  -0.0010843  -0.0458950  -0.0021279   0.0321304
    2   0.0090825  -0.0037263  -0.0134010  -0.0127683  -0.0065083   0.0163584
    3   0.0053582   0.0135872  -0.0054825  -0.0480109   0.0317727  -0.0264016
           19          20          21          22          23          24
    1  -0.0034103   0.0141260  -0.0110972   0.0026146   0.0109587   0.0062356
    2  -0.0017388   0.0006226  -0.0093765   0.0000606   0.0100111   0.0170747
    3  -0.0012369   0.0374718   0.0188121   0.0028913  -0.0280119   0.0094661
           25          26          27          28          29          30
    1  -0.0045798  -0.0049948   0.0060184   0.0191283  -0.0040937  -0.0077628
    2   0.0033953  -0.0028645  -0.0070780   0.0198781  -0.0013081   0.0022026
    3  -0.0068272   0.0209033  -0.0145576   0.0101873   0.0085531   0.0145242
           31          32          33          34          35          36
    1  -0.0131391   0.0084652  -0.0049234  -0.0047944   0.0064954  -0.0161010
    2   0.0098283  -0.0000612  -0.0015286  -0.0208063   0.0016322  -0.0153679
    3   0.0045005   0.0072817  -0.0110889  -0.0048517  -0.0218493  -0.0121121
           37          38          39          40          41          42
    1   0.0058592   0.0085864  -0.0020478  -0.0100842   0.0063534   0.0032169
    2   0.0199142  -0.0187827  -0.0045138  -0.0072363   0.0085367   0.0075583
    3   0.0064331  -0.0087484  -0.0047820  -0.0090859   0.0153203  -0.0067195
           43          44          45          46          47          48
    1   0.0040117  -0.0005415   0.0016532  -0.0041811  -0.0014057  -0.0104379
    2  -0.0105757   0.0036634  -0.0028168  -0.0045015   0.0030341  -0.0058080
    3   0.0032696   0.0102004   0.0008245   0.0079078  -0.0031714   0.0019334
           49          50          51          52          53          54
    1   0.0077362   0.0015358   0.0024221  -0.0092914   0.0015348   0.0013566
    2  -0.0068502   0.0060023  -0.0003325  -0.0063523   0.0036099   0.0047334
    3   0.0044291  -0.0079478  -0.0044004   0.0006181  -0.0071748   0.0102062
           55          56          57          58          59          60
    1  -0.0066302  -0.0062112   0.0085789  -0.0039923  -0.0092252   0.0043708
    2   0.0110138  -0.0060957   0.0315966  -0.0299477   0.0124681  -0.0005551
    3   0.0126850   0.0018756  -0.0030205   0.0044979   0.0047691  -0.0072849
           61          62          63          64          65          66
    1   0.0060382   0.0098550  -0.0147980   0.0113666   0.0257571  -0.0373377
    2  -0.0144662   0.0065633   0.0056475  -0.0160002   0.0051960  -0.0454674
    3  -0.0127856   0.0034723  -0.0063778  -0.0088741   0.0080545   0.0003313
           67          68          69          70          71          72
    1  -0.0048114  -0.0014046   0.0291709  -0.0267823   0.0063820  -0.0093087
    2   0.0016466   0.0000427   0.0452022   0.0032304   0.0096252  -0.0017507
    3   0.0118003  -0.0114147   0.0003255   0.0002794  -0.0072493   0.0095101
           73          74          75          76          77          78
    1   0.0123743  -0.0096384   0.0041687   0.0125566   0.0010666  -0.0038739
    2   0.0141860   0.0123191  -0.0257182   0.0125700  -0.0055488  -0.0005936
    3   0.0038518  -0.0064781   0.0080087  -0.0001224  -0.0092164   0.0107504
           79          80          81          82          83          84
    1  -0.0128517   0.0046927   0.0094105  -0.0106917  -0.0001119  -0.0038851
    2   0.0278380  -0.0058952  -0.0167871   0.0032972  -0.0018438   0.0055008
    3  -0.0099687   0.0045351   0.0072145   0.0005836  -0.0129673   0.0104861
           85          86          87          88
    1  -0.0079523   0.0095007   0.0035918   0.0063856
    2   0.0077270  -0.0004198  -0.0067590   0.0001453
    3  -0.0084537   0.0081545  -0.0055147   0.0016064
 Max gradient component =       4.801E-02
 RMS gradient           =       1.241E-02
 Gradient time:  CPU 3366.94 s  wall 727.76 s
 Geometry Optimization Parameters
   NAtoms,    NIC,     NZ,  NCons,   NDum,   NFix, NCnnct, MaxDiis
       88     628       0       0       0       0       0       0


** GEOMETRY OPTIMIZATION IN DELOCALIZED INTERNAL COORDINATES **
   Searching for a Minimum

   Optimization Cycle:   1

                       Coordinates (Angstroms)
     ATOM                X               Y               Z
      1  N         8.0508684670   -3.5551502194    0.0833985825
      2  C         7.1516293429   -2.5013953930   -0.3757324352
      3  C         5.7853440121   -3.0674293556   -0.6646931181
      4  O         5.6738296151   -3.9237881731   -1.5305887792
      5  H         7.0898309861   -1.7164768434    0.4087008520
      6  H         7.5580832416   -2.0333552798   -1.2994679794
      7  H         8.1893825982   -4.2518283482   -0.6847474974
      8  H         8.9819132285   -3.1276437310    0.2928601438
      9  N         4.6899223198   -2.6134221631    0.0095812923
     10  C         3.3397169983   -3.1075545261   -0.2395021693
     11  C         2.3320608141   -2.2794507207    0.5393549197
     12  O         2.3826139085   -2.2667209709    1.7620420953
     13  C         3.2055319059   -4.5967152567    0.1567068672
     14  H         3.4560714376   -4.7134361006    1.2341700463
     15  H         3.9071917366   -5.2266168151   -0.4255641229
     16  C         1.8142205496   -5.1082993531   -0.0925930559
     17  N         1.2113254681   -5.1455221637   -1.2918326942
     18  C        -0.0107996340   -5.6599281822   -1.0625036981
     19  H        -0.7527142423   -5.8200240980   -1.8334305061
     20  N        -0.2075651317   -5.9529535826    0.2402021872
     21  C         0.9424344561   -5.6060065858    0.8512791104
     22  H         1.1270359620   -5.7067920452    1.9126246911
     23  H         1.6021076544   -4.8391319882   -2.2102104105
     24  H         4.8222806356   -1.8613176172    0.7039753985
     25  H         3.1271199896   -3.0006270607   -1.3265273820
     26  N         1.3768007687   -1.5702589989   -0.1245820153
     27  C         0.3479282557   -0.7777018065    0.5373862462
     28  C        -1.0311812221   -1.2950995489    0.1602668580
     29  O        -1.1411686069   -2.1569467058   -0.7020540101
     30  H         0.4394751513   -0.8604816663    1.6427828000
     31  C         0.5452517917    0.6927257708    0.1309486100
     32  H         1.5397186802    0.9827445512    0.5260463644
     33  H         0.5245077963    0.7498583700   -0.9799716013
     34  O        -0.4791121345    1.5099935299    0.6536922572
     35  H         1.3724092792   -1.5910646463   -1.1565728005
     36  N        -2.1352564118   -0.8280623460    0.8115969856
     37  C        -3.4937852236   -1.2606596480    0.5166646771
     38  C        -4.3054019695   -0.0373922196    0.1516365725
     39  O        -4.4398300856    0.8534172122    0.9801631341
     40  H        -3.4873804572   -1.9698728482   -0.3365716274
     41  H        -2.0094050998   -0.1475657380    1.5764217086
     42  C        -4.0504796290   -2.0115642626    1.7525757198
     43  H        -3.3258315115   -2.8259490732    1.9782374110
     44  H        -4.0527897185   -1.3306762715    2.6323991556
     45  C        -5.4440817999   -2.6877953799    1.6357102158
     46  H        -5.5923111992   -3.2493398637    2.5852255661
     47  C        -5.5038424668   -3.7026084410    0.4858688256
     48  H        -6.4758077567   -4.2402712217    0.5021606837
     49  H        -4.6918698925   -4.4530725763    0.5928414172
     50  H        -5.4069408984   -3.1997120205   -0.4988765085
     51  C        -6.6073297818   -1.6930126361    1.5391973668
     52  H        -7.5736707231   -2.2394462536    1.5825627622
     53  H        -6.5923068203   -1.1292680816    0.5900112407
     54  H        -6.5753559225   -0.9815885079    2.3913854404
     55  N        -4.8656890151    0.0775454490   -1.0860885553
     56  C        -5.6446759288    1.2320996232   -1.5062205431
     57  C        -7.0451166862    0.8382107298   -1.9014172318
     58  O        -7.4111303250   -0.3252614129   -1.8366878749
     59  H        -5.7154503317    1.9945352223   -0.7014017171
     60  H        -5.1450875212    1.7012147105   -2.3799216366
     61  H        -4.7288798085   -0.6812553235   -1.7712773128
     62  O        -7.9126967324    1.7769484978   -2.3336163252
     63  H        -7.6598096444    2.7087654837   -2.3961679394
     64  C        -0.1839832304    2.9037275843    0.6554611650
     65  C        -1.5685750382    3.6002958571    0.6974856620
     66  C        -1.5923231845    5.1125312249    0.7069923140
     67  H        -2.1106464259    3.2487035325    1.6024831422
     68  H        -2.1477041687    3.2700554407   -0.1930420593
     69  O        -2.7877406354    5.7387001085    0.7320087136
     70  H        -2.8539764301    6.7041819531    0.7282221063
     71  O        -0.5659293524    5.7749057726    0.6790079204
     72  O         0.5196085868    3.2095095341    1.8359784913
     73  H         0.8373193055    4.1453948864    1.7786553397
     74  C         6.9079263968    5.2962728880    0.1819665989
     75  C         5.4824935723    5.5019618603   -0.2367640800
     76  H         7.4905197824    6.2362727044    0.0761354367
     77  H         7.3741097067    4.5129042806   -0.4516576930
     78  H         6.9409624897    4.9733995845    1.2438054562
     79  N         4.6036625510    4.4665056128   -0.1812288391
     80  C         3.2110955596    4.6161263556   -0.5671962672
     81  H         4.9434792825    3.5495902793    0.1503929089
     82  C         2.4599683047    3.2969651546   -0.3999305249
     83  H         3.1527704556    4.9368101680   -1.6302569873
     84  H         2.7333351240    5.3896160574    0.0734304116
     85  S         0.6989213438    3.4938757001   -0.8887328782
     86  H         2.5700860361    2.9794029412    0.6541893723
     87  H         2.9153475211    2.5067354312   -1.0338686312
     88  O         5.1224931228    6.6047455709   -0.6243805765
   Point Group: c1    Number of degrees of freedom:   258


   Energy is  -2679.302275284


 Attempting to Generate Delocalized Internal Coordinates

258 Hessian modes will be used to form the next step
  Hessian Eigenvalues:
     0.002000    0.002000    0.002114    0.002498    0.002618    0.002988
     0.004116    0.004578    0.004729    0.005580    0.006470    0.006649
     0.007495    0.007532    0.007789    0.007814    0.008011    0.008186
     0.008247    0.008271    0.008402    0.008662    0.008755    0.009201
     0.011093    0.011634    0.012097    0.012326    0.012386    0.012789
     0.012841    0.013116    0.013183    0.013242    0.013317    0.013553
     0.014001    0.014210    0.014601    0.016948    0.020367    0.020397
     0.020475    0.020612    0.021034    0.022297    0.022347    0.022628
     0.022708    0.023034    0.024010    0.024523    0.029306    0.031721
     0.036446    0.042879    0.045086    0.045446    0.046358    0.046760
     0.046941    0.047503    0.047767    0.049693    0.050766    0.051463
     0.051577    0.051906    0.052014    0.052516    0.053101    0.053223
     0.054045    0.055124    0.055964    0.056695    0.057507    0.057916
     0.060090    0.062390    0.063788    0.064620    0.065265    0.066223
     0.066382    0.072769    0.074507    0.075765    0.080912    0.090972
     0.091794    0.093032    0.094304    0.096695    0.098515    0.101262
     0.109640    0.111878    0.126316    0.127253    0.128297    0.130777
     0.131869    0.133188    0.136769    0.137977    0.159922    0.159956
     0.159993    0.159998    0.159999    0.159999    0.160000    0.160000
     0.160000    0.160000    0.160000    0.160000    0.160000    0.160000
     0.160000    0.160000    0.160000    0.160000    0.160000    0.160000
     0.160000    0.160000    0.170827    0.172002    0.172161    0.172710
     0.176730    0.181003    0.183037    0.183138    0.186317    0.192961
     0.210508    0.219581    0.219817    0.219954    0.220000    0.220000
     0.220002    0.220011    0.220018    0.220021    0.220033    0.220454
     0.220917    0.221965    0.226590    0.233244    0.234479    0.249882
     0.249954    0.249985    0.249990    0.249990    0.249992    0.250000
     0.250000    0.250000    0.250000    0.250000    0.250000    0.250000
     0.250000    0.250000    0.250000    0.250000    0.273635    0.276082
     0.276857    0.279250    0.286724    0.289863    0.290898    0.296830
     0.303203    0.304509    0.310777    0.311053    0.316028    0.316681
     0.320437    0.322614    0.322791    0.323086    0.323282    0.323346
     0.323416    0.323446    0.323526    0.323613    0.323703    0.323923
     0.323947    0.323989    0.324503    0.324961    0.324994    0.325066
     0.325072    0.325125    0.325233    0.325395    0.325566    0.325647
     0.325822    0.326039    0.326508    0.327399    0.327897    0.329832
     0.332352    0.357556    0.357719    0.370402    0.370647    0.372521
     0.374788    0.376281    0.378817    0.404036    0.404788    0.407148
     0.417692    0.423930    0.424458    0.424526    0.425538    0.425617
     0.438680    0.443370    0.446141    0.493979    0.494899    0.520862
     0.521311    0.522490    0.524541    0.527211    0.530966    0.538375
     0.538813    0.550816    0.551619    0.556524    0.560844    0.935800
     0.936517    0.937201    0.940219    0.940962    0.945521    0.947647

 Minimum Search - Taking Simple RFO Step
 Searching for Lamda that Minimizes Along All modes
 Value Taken    Lamda =  -0.09652230
 Calculated Step too Large.  Step scaled by  0.530014
 Step Taken.  Stepsize is  0.300000

                             Maximum     Tolerance    Cnvgd?
         Gradient           0.038806      0.000300      NO
         Displacement       0.064986      0.001200      NO
         Energy change     *********      0.000001      NO


 New Cartesian Coordinates Obtained by Inverse Iteration

 Displacement from previous Coordinates is:  4.238518
 ----------------------------------------------------------------
             Standard Nuclear Orientation (Angstroms)
    I     Atom           X                Y                Z
 ----------------------------------------------------------------
    1      N       8.0086491915    -3.7857971383     0.0372925637
    2      C       7.1456678671    -2.7025966033    -0.4178113411
    3      C       5.7733854505    -3.2519294708    -0.7036223452
    4      O       5.6352546572    -4.1072355380    -1.5695272662
    5      H       7.1122614756    -1.9236943005     0.3655908956
    6      H       7.5318746253    -2.2331146482    -1.3440242097
    7      H       8.1131907922    -4.4671369565    -0.7310616990
    8      H       8.9440417063    -3.3978461556     0.2319299309
    9      N       4.7124660387    -2.7666687839    -0.0053342531
   10      C       3.3548456289    -3.2321285703    -0.2272864139
   11      C       2.3918981496    -2.3738111264     0.5664815110
   12      O       2.4640626238    -2.3424133159     1.7883293321
   13      C       3.1747379123    -4.7020431684     0.1913988170
   14      H       3.4369991128    -4.8036437531     1.2574910970
   15      H       3.8543086615    -5.3460921525    -0.3892905149
   16      C       1.7629112398    -5.1628229689    -0.0146863677
   17      N       1.1191612244    -5.2024239193    -1.2039143221
   18      C      -0.1302821132    -5.6627120347    -0.9612659018
   19      H      -0.8815897151    -5.7998421763    -1.7244776484
   20      N      -0.3175095934    -5.9241014465     0.3325174775
   21      C       0.8637908230    -5.6111397256     0.9240024280
   22      H       1.0429953687    -5.7061348058     1.9847429752
   23      H       1.5013006242    -4.9333955212    -2.1177386571
   24      H       4.8681746926    -2.0249648386     0.6797296039
   25      H       3.1294068790    -3.1341019452    -1.3071685660
   26      N       1.4569629621    -1.6704344747    -0.1236509257
   27      C       0.4414812047    -0.8633447945     0.5088262889
   28      C      -0.9359718959    -1.3745279781     0.1170142275
   29      O      -1.0578171985    -2.2342408684    -0.7476677279
   30      H       0.5364796963    -0.9371957248     1.6054095866
   31      C       0.6402706112     0.5980608950     0.0919134184
   32      H       1.6231187176     0.9086891734     0.4815548194
   33      H       0.6257328877     0.6579374461    -1.0115425722
   34      O      -0.4110124398     1.3750402798     0.6246514547
   35      H       1.4479840924    -1.7178444277    -1.1429922917
   36      N      -2.0051190468    -0.8540876499     0.7748691899
   37      C      -3.3771457929    -1.2270429150     0.5024895223
   38      C      -4.1224126796     0.0360259486     0.1343423056
   39      O      -4.2097111950     0.9491837575     0.9472254947
   40      H      -3.3952480593    -1.9417775098    -0.3359156878
   41      H      -1.8493421784    -0.1711091816     1.5188769821
   42      C      -3.9694698356    -1.9240458302     1.7411807196
   43      H      -3.2874449692    -2.7617223561     1.9779279309
   44      H      -3.9356211018    -1.2303697035     2.6014666604
   45      C      -5.3898590900    -2.5191728180     1.6255344290
   46      H      -5.5673702061    -3.0549792327     2.5774100765
   47      C      -5.4972366027    -3.5426746626     0.4928384562
   48      H      -6.4892764355    -4.0244098122     0.5076541452
   49      H      -4.7331276177    -4.3312087564     0.6046956796
   50      H      -5.3719016211    -3.0639181727    -0.4933438026
   51      C      -6.4939528970    -1.4655409932     1.5084231964
   52      H      -7.4831714372    -1.9524184586     1.5546093775
   53      H      -6.4468670501    -0.9209870392     0.5551850344
   54      H      -6.4310371233    -0.7431541488     2.3400017808
   55      N      -4.6645859040     0.1321735120    -1.1089150054
   56      C      -5.3858042683     1.2978133600    -1.5551396230
   57      C      -6.8027142731     0.9528532204    -1.9448810850
   58      O      -7.2349729023    -0.1789136869    -1.8779321315
   59      H      -5.4060124520     2.0601322106    -0.7589223291
   60      H      -4.8719020794     1.7360772348    -2.4302693812
   61      H      -4.5636177662    -0.6429087981    -1.7654587923
   62      O      -7.6042791376     1.9380861820    -2.3840222284
   63      H      -7.2390526378     2.8320983959    -2.4265561476
   64      C      -0.2125099562     2.7728231373     0.6558378596
   65      C      -1.6366276160     3.3465738489     0.7426678872
   66      C      -1.7371005035     4.8437004246     0.8378193408
   67      H      -2.1350163221     2.9155050894     1.6288805351
   68      H      -2.2057472317     3.0125847663    -0.1447088093
   69      O      -2.9859195798     5.3273573018     0.9050488939
   70      H      -3.0622840125     6.2881227806     0.9628252247
   71      O      -0.7640548451     5.5777225744     0.8563361207
   72      O       0.4919138529     3.0809575696     1.8256655186
   73      H       0.7200954128     4.0347261382     1.7775043378
   74      C       6.6457052216     5.6376112961     0.1514782404
   75      C       5.2068826698     5.7958776162    -0.2510616202
   76      H       7.1643104521     6.6036941737     0.0702341526
   77      H       7.1502860225     4.9052389078    -0.5022432563
   78      H       6.7156914080     5.2824114514     1.1938687827
   79      N       4.4081165927     4.6975596702    -0.2132319513
   80      C       3.0074192649     4.7648275014    -0.5768728145
   81      H       4.8064227414     3.8044607772     0.0824306645
   82      C       2.3667824810     3.3900437169    -0.4333322834
   83      H       2.9123205158     5.1142852272    -1.6197639039
   84      H       2.4863279030     5.4817493835     0.0821930241
   85      S       0.5961734205     3.4660055200    -0.8815996139
   86      H       2.5009754451     3.0476579576     0.6040112054
   87      H       2.8678730414     2.6575512921    -1.0907382071
   88      O       4.7660614148     6.8823368809    -0.6014243390
 ----------------------------------------------------------------
 Molecular Point Group                 C1    NOp =  1
 Largest Abelian Subgroup              C1    NOp =  1
 Nuclear Repulsion Energy =  6260.1248541432 hartrees
 There are      179 alpha and      179 beta electrons
 Applying Cartesian multipole field
    Component          Value
    ---------          -----
     (2,0,0)        1.00000E-12
     (0,2,0)        2.00000E-12
     (0,0,2)       -3.00000E-11
 Nucleus-field energy     =     0.0000000106 hartrees
 Requested basis set is 6-31G(d)
 There are 269 shells and 778 basis functions
 A cutoff of  1.0D-11 yielded  12551 shell pairs
 There are    107133 function pairs
 Smallest overlap matrix eigenvalue = 1.19E-03
 Guess MOs from SCF MO coefficient file

 -----------------------------------------------------------------------
  General SCF calculation program by
  Eric Jon Sundstrom, Paul Horn, Yuezhi Mao, Dmitri Zuev, Alec White,
  David Stuck, Shaama M.S., Shane Yost, Joonho Lee, David Small,
  Daniel Levine, Susi Lehtola, Hugh Burton, Evgeny Epifanovsky
 -----------------------------------------------------------------------
 Exchange:  B97M-V      Correlation:  B97M-V
 Using SG-2 standard quadrature grid
 Nonlocal Correlation:  VV10 with C = 0.0100 and b = 6.00 and scale = 1.00000
 Grid used for NLC:  SG-1 standard quadrature
 using 8 threads for integral computing
 -------------------------------------------------------
 OpenMP Integral computing Module                
 Release: version 1.0, May 2013, Q-Chem Inc. Pittsburgh 
 -------------------------------------------------------
 -------------------------------------------------------
 OpenMP BLAS3 based DFT computing Module                
 Release: version 1.0, May 2013, Q-Chem Inc. Pittsburgh 
 -------------------------------------------------------
 -------------------------------------------------------
 OpenMP BLAS3 based DFT computing Module                
 Release: version 1.0, May 2013, Q-Chem Inc. Pittsburgh 
 -------------------------------------------------------
 -------------------------------------------------------
 OpenMP BLAS3 based DFT computing Module                
 Release: version 1.0, May 2013, Q-Chem Inc. Pittsburgh 
 -------------------------------------------------------
 Nonlocal correlation = 1.343802771694
 A restricted SCF calculation will be
 performed using DIIS
 SCF converges when DIIS error is below 1.0e-08
 ---------------------------------------
  Cycle       Energy         DIIS error
 ---------------------------------------
 Nonlocal correlation = 1.344545209955e+00
    1   -2679.2925597762      6.37e-04  
 Nonlocal correlation = 1.343954672331e+00
    2   -2679.3423046656      1.13e-04  
 Nonlocal correlation = 1.344230888777e+00
    3   -2679.3411161881      1.78e-04  
 Nonlocal correlation = 1.344264244212e+00
    4   -2679.3430568716      4.60e-05  
 Nonlocal correlation = 1.344265764580e+00
    5   -2679.3431763861      1.45e-05  
 Nonlocal correlation = 1.344259193194e+00
    6   -2679.3431895012      3.94e-06  
 Nonlocal correlation = 1.344258999776e+00
    7   -2679.3431904344      1.60e-06  
 Nonlocal correlation = 1.344259868422e+00
    8   -2679.3431905681      8.25e-07  
 Nonlocal correlation = 1.344259869906e+00
    9   -2679.3431906106      2.10e-07  
 Nonlocal correlation = 1.344259853512e+00
   10   -2679.3431906134      5.48e-08  
 Nonlocal correlation = 1.344259843738e+00
   11   -2679.3431906136      2.45e-08  
   12   -2679.3431906136      7.11e-09  Convergence criterion met
 ---------------------------------------
 SCF time:   CPU 32850.08s  wall 4119.00s 
 SCF   energy in the final basis set =    -2679.3431906136
 Total energy in the final basis set =    -2679.3431906136
 
 --------------------------------------------------------------
 
                    Orbital Energies (a.u.)
 --------------------------------------------------------------
 
 Alpha MOs
 -- Occupied --
-88.973 -19.229 -19.227 -19.207 -19.198 -19.165 -19.161 -19.139
-19.138 -19.131 -19.128 -19.119 -14.393 -14.392 -14.390 -14.382
-14.375 -14.374 -14.331 -14.302 -10.348 -10.338 -10.333 -10.296
-10.294 -10.288 -10.286 -10.281 -10.261 -10.259 -10.248 -10.248
-10.238 -10.237 -10.234 -10.223 -10.220 -10.217 -10.198 -10.192
-10.192 -10.186 -10.184 -10.171 -10.166 -10.159  -7.980  -5.852
 -5.848  -5.841  -1.113  -1.110  -1.092  -1.042  -1.040  -1.033
 -1.029  -1.027  -1.023  -1.021  -1.020  -0.992  -0.930  -0.930
 -0.920  -0.918  -0.915  -0.872  -0.845  -0.804  -0.793  -0.785
 -0.778  -0.759  -0.750  -0.730  -0.718  -0.713  -0.692  -0.674
 -0.666  -0.650  -0.642  -0.633  -0.627  -0.615  -0.605  -0.591
 -0.582  -0.579  -0.576  -0.565  -0.562  -0.561  -0.553  -0.543
 -0.534  -0.520  -0.518  -0.503  -0.496  -0.495  -0.487  -0.482
 -0.479  -0.477  -0.474  -0.470  -0.463  -0.462  -0.458  -0.457
 -0.449  -0.447  -0.445  -0.443  -0.440  -0.425  -0.423  -0.419
 -0.416  -0.413  -0.410  -0.407  -0.406  -0.405  -0.397  -0.393
 -0.391  -0.388  -0.385  -0.383  -0.379  -0.378  -0.376  -0.375
 -0.373  -0.372  -0.368  -0.366  -0.365  -0.363  -0.361  -0.360
 -0.359  -0.353  -0.349  -0.345  -0.340  -0.339  -0.332  -0.328
 -0.324  -0.322  -0.311  -0.306  -0.303  -0.298  -0.293  -0.288
 -0.280  -0.273  -0.263  -0.259  -0.251  -0.249  -0.245  -0.244
 -0.241  -0.236  -0.232  -0.232  -0.227  -0.223  -0.223  -0.221
 -0.215  -0.212  -0.181
 -- Virtual --
 -0.031  -0.029  -0.021  -0.018  -0.014  -0.005  -0.001   0.006
  0.020   0.022   0.024   0.028   0.036   0.041   0.048   0.049
  0.053   0.061   0.065   0.071   0.075   0.078   0.080   0.086
  0.089   0.094   0.101   0.105   0.112   0.115   0.119   0.121
  0.122   0.123   0.128   0.130   0.132   0.133   0.134   0.136
  0.139   0.141   0.146   0.147   0.152   0.156   0.158   0.160
  0.161   0.165   0.171   0.172   0.175   0.177   0.179   0.184
  0.186   0.191   0.194   0.196   0.199   0.201   0.209   0.211
  0.214   0.219   0.222   0.225   0.228   0.231   0.233   0.239
  0.241   0.246   0.252   0.255   0.257   0.264   0.277   0.285
  0.288   0.304   0.306   0.319   0.328   0.338   0.345   0.346
  0.350   0.360   0.363   0.367   0.386   0.399   0.399   0.407
  0.413   0.416   0.430   0.443   0.446   0.474   0.483   0.491
  0.496   0.503   0.507   0.511   0.515   0.521   0.521   0.522
  0.529   0.531   0.537   0.541   0.544   0.545   0.550   0.552
  0.556   0.559   0.563   0.564   0.571   0.577   0.579   0.581
  0.582   0.588   0.594   0.595   0.604   0.604   0.607   0.617
  0.620   0.620   0.624   0.634   0.638   0.644   0.646   0.648
  0.652   0.653   0.655   0.657   0.660   0.665   0.670   0.673
  0.676   0.678   0.682   0.685   0.689   0.693   0.699   0.703
  0.709   0.714   0.718   0.722   0.731   0.736   0.739   0.745
  0.752   0.760   0.764   0.766   0.770   0.774   0.779   0.781
  0.784   0.789   0.794   0.795   0.797   0.803   0.806   0.812
  0.815   0.819   0.822   0.824   0.828   0.828   0.832   0.833
  0.836   0.838   0.843   0.847   0.848   0.854   0.856   0.861
  0.865   0.867   0.870   0.872   0.873   0.874   0.876   0.878
  0.880   0.883   0.884   0.889   0.894   0.898   0.900   0.902
  0.903   0.906   0.907   0.911   0.912   0.913   0.914   0.922
  0.924   0.925   0.925   0.931   0.933   0.940   0.943   0.943
  0.945   0.949   0.954   0.958   0.960   0.967   0.969   0.972
  0.978   0.979   0.982   0.990   0.995   1.000   1.001   1.003
  1.015   1.017   1.021   1.027   1.032   1.040   1.041   1.053
  1.054   1.059   1.072   1.079   1.088   1.089   1.093   1.109
  1.115   1.127   1.134   1.140   1.145   1.147   1.149   1.156
  1.161   1.163   1.171   1.179   1.185   1.190   1.202   1.213
  1.226   1.232   1.234   1.244   1.257   1.264   1.267   1.275
  1.286   1.289   1.302   1.310   1.321   1.328   1.338   1.347
  1.348   1.349   1.353   1.360   1.368   1.374   1.377   1.383
  1.386   1.398   1.402   1.411   1.413   1.431   1.436   1.451
  1.452   1.459   1.462   1.467   1.476   1.482   1.486   1.493
  1.493   1.506   1.517   1.521   1.525   1.538   1.553   1.558
  1.563   1.569   1.573   1.584   1.588   1.594   1.601   1.611
  1.615   1.622   1.632   1.640   1.652   1.657   1.668   1.668
  1.677   1.686   1.694   1.699   1.708   1.714   1.717   1.724
  1.727   1.730   1.739   1.746   1.753   1.759   1.768   1.768
  1.772   1.781   1.784   1.790   1.799   1.800   1.803   1.809
  1.814   1.819   1.821   1.832   1.838   1.839   1.843   1.844
  1.849   1.852   1.862   1.868   1.869   1.876   1.878   1.881
  1.894   1.898   1.907   1.910   1.913   1.921   1.922   1.928
  1.936   1.942   1.945   1.950   1.951   1.958   1.960   1.965
  1.968   1.973   1.976   1.980   1.983   1.987   1.992   2.000
  2.006   2.006   2.014   2.015   2.026   2.031   2.032   2.037
  2.044   2.057   2.063   2.068   2.070   2.081   2.085   2.090
  2.096   2.099   2.100   2.112   2.116   2.118   2.126   2.131
  2.135   2.145   2.148   2.149   2.155   2.157   2.160   2.164
  2.169   2.182   2.185   2.203   2.203   2.220   2.225   2.231
  2.234   2.246   2.255   2.256   2.273   2.276   2.288   2.291
  2.296   2.302   2.312   2.315   2.319   2.330   2.339   2.352
  2.359   2.373   2.378   2.383   2.397   2.398   2.403   2.418
  2.425   2.435   2.438   2.448   2.459   2.460   2.464   2.473
  2.477   2.487   2.489   2.495   2.498   2.507   2.531   2.532
  2.540   2.546   2.563   2.568   2.578   2.594   2.597   2.622
  2.650   2.656   2.662   2.665   2.669   2.672   2.679   2.684
  2.685   2.694   2.703   2.712   2.720   2.737   2.746   2.755
  2.757   2.766   2.771   2.781   2.795   2.799   2.806   2.809
  2.811   2.843   2.852   2.866   2.885   2.892   2.904   2.926
  2.941   2.961   2.969   2.987   2.994   3.011   3.044   3.056
  3.059   3.063   3.068   3.071   3.084   3.119   3.126   3.140
  3.146   3.159   3.163   3.207   3.223   3.233   3.235   3.262
  3.273   3.895   3.915   3.939   3.963   4.084   4.087   4.103
  4.111   4.121   4.142   4.167   4.188   4.198   4.205   4.235
  4.242   4.271   4.281   4.305   4.324   4.337   4.341   4.351
  4.360   4.363   4.396   4.427   4.443   4.476   4.489   4.508
  4.535   4.543   4.574   4.580   4.604   4.639   4.648   4.655
  4.683   4.710   4.751   4.790   4.817   4.864   4.877
 --------------------------------------------------------------
 
          Ground-State Mulliken Net Atomic Charges

     Atom                 Charge (a.u.)
  ----------------------------------------
      1 N                    -0.731283
      2 C                    -0.233912
      3 C                     0.664334
      4 O                    -0.531111
      5 H                     0.136575
      6 H                     0.150554
      7 H                     0.323124
      8 H                     0.311992
      9 N                    -0.667406
     10 C                    -0.000022
     11 C                     0.625627
     12 O                    -0.517516
     13 C                    -0.369575
     14 H                     0.191744
     15 H                     0.201272
     16 C                     0.270270
     17 N                    -0.612902
     18 C                     0.203785
     19 H                     0.161711
     20 N                    -0.437848
     21 C                    -0.057347
     22 H                     0.149477
     23 H                     0.353549
     24 H                     0.350336
     25 H                     0.134681
     26 N                    -0.627665
     27 C                    -0.131150
     28 C                     0.658025
     29 O                    -0.527645
     30 H                     0.224314
     31 C                    -0.013685
     32 H                     0.160828
     33 H                     0.155362
     34 O                    -0.505797
     35 H                     0.349469
     36 N                    -0.629311
     37 C                    -0.075532
     38 C                     0.672108
     39 O                    -0.544416
     40 H                     0.183905
     41 H                     0.359304
     42 C                    -0.287026
     43 H                     0.168864
     44 H                     0.151442
     45 C                    -0.106692
     46 H                     0.140429
     47 C                    -0.462140
     48 H                     0.157544
     49 H                     0.164342
     50 H                     0.136415
     51 C                    -0.472203
     52 H                     0.150693
     53 H                     0.162587
     54 H                     0.151610
     55 N                    -0.620337
     56 C                    -0.285829
     57 C                     0.648661
     58 O                    -0.438275
     59 H                     0.229168
     60 H                     0.185511
     61 H                     0.361092
     62 O                    -0.579692
     63 H                     0.426085
     64 C                     0.386465
     65 C                    -0.436574
     66 C                     0.635425
     67 H                     0.235199
     68 H                     0.200340
     69 O                    -0.590372
     70 H                     0.433784
     71 O                    -0.469035
     72 O                    -0.620103
     73 H                     0.432461
     74 C                    -0.582879
     75 C                     0.628685
     76 H                     0.203931
     77 H                     0.170168
     78 H                     0.173448
     79 N                    -0.643650
     80 C                    -0.080404
     81 H                     0.331587
     82 C                    -0.510401
     83 H                     0.180576
     84 H                     0.184612
     85 S                     0.108186
     86 H                     0.198074
     87 H                     0.178538
     88 O                    -0.508535
  ----------------------------------------
  Sum of atomic charges =    -0.000000

 -----------------------------------------------------------------
                    Cartesian Multipole Moments
 -----------------------------------------------------------------
    Charge (ESU x 10^10)
                -0.0000
    Dipole Moment (Debye)
         X       2.1318      Y       5.5782      Z      -3.0698
       Tot       6.7145
    Quadrupole Moments (Debye-Ang)
        XX    -261.2372     XY     -30.9103     YY    -330.9640
        XZ       3.8813     YZ      13.0420     ZZ    -273.5086
    Octopole Moments (Debye-Ang^2)
       XXX     530.7881    XXY     190.6293    XYY    -342.7959
       YYY      67.9277    XXZ      26.9676    XYZ      89.1766
       YYZ      -3.6438    XZZ     -46.2218    YZZ      30.1134
       ZZZ     -34.0428
    Hexadecapole Moments (Debye-Ang^3)
      XXXX  -27469.7044   XXXY    -654.0877   XXYY   -8316.8912
      XYYY   -1977.8021   YYYY  -24985.4291   XXXZ    -412.8016
      XXYZ     -78.5905   XYYZ     361.0346   YYYZ     843.7966
      XXZZ   -5228.9474   XYZZ      23.3804   YYZZ   -3776.9451
      XZZZ     118.2767   YZZZ      89.9114   ZZZZ   -2028.5397
 -----------------------------------------------------------------
 Calculating analytic gradient of the SCF energy
 Gradient of SCF Energy
            1           2           3           4           5           6
    1  -0.0089611  -0.0079870   0.0076472  -0.0000701  -0.0015808   0.0078089
    2   0.0049839  -0.0088728   0.0055678   0.0025278   0.0044155  -0.0024686
    3  -0.0005431  -0.0053152   0.0097322   0.0009925   0.0040827  -0.0022544
            7           8           9          10          11          12
    1   0.0016870   0.0124209  -0.0077509  -0.0013063   0.0042528  -0.0035465
    2  -0.0109233   0.0071488  -0.0148603   0.0023672  -0.0041315  -0.0016220
    3  -0.0094499   0.0060020  -0.0096463   0.0132295  -0.0147437   0.0011267
           13          14          15          16          17          18
    1   0.0071904   0.0032527  -0.0016541  -0.0262646  -0.0003997   0.0158609
    2   0.0080344  -0.0023219  -0.0084917  -0.0052144  -0.0043381   0.0082291
    3   0.0054755   0.0077103  -0.0032236  -0.0319381   0.0257340  -0.0203682
           19          20          21          22          23          24
    1  -0.0028059   0.0069850  -0.0065519   0.0023954   0.0063453   0.0040630
    2  -0.0016913  -0.0001575  -0.0054134   0.0003032   0.0054425   0.0114291
    3   0.0003682   0.0216834   0.0095045   0.0010722  -0.0158646   0.0043037
           25          26          27          28          29          30
    1  -0.0033896  -0.0063341   0.0059319   0.0137590  -0.0018441  -0.0056649
    2   0.0026126  -0.0029149  -0.0051436   0.0135845  -0.0037682   0.0018844
    3  -0.0044742   0.0114139  -0.0094832   0.0065527   0.0045451   0.0087618
           31          32          33          34          35          36
    1  -0.0079205   0.0047715  -0.0030998  -0.0040942   0.0050007  -0.0112801
    2   0.0067648  -0.0012247  -0.0019549  -0.0148755   0.0029506  -0.0052303
    3   0.0007388   0.0043703  -0.0064002  -0.0019031  -0.0131774  -0.0074552
           37          38          39          40          41          42
    1   0.0073917   0.0050092  -0.0017481  -0.0077818   0.0035819   0.0024112
    2   0.0140735  -0.0123193  -0.0026461  -0.0046383   0.0044445   0.0058218
    3   0.0036267  -0.0060685  -0.0011969  -0.0047343   0.0103337  -0.0053377
           43          44          45          46          47          48
    1   0.0017274  -0.0002542   0.0016261  -0.0028995  -0.0010455  -0.0063450
    2  -0.0065977   0.0016972  -0.0025548  -0.0022615   0.0018919  -0.0032346
    3   0.0018049   0.0063626   0.0013446   0.0048610  -0.0029266   0.0015296
           49          50          51          52          53          54
    1   0.0041654   0.0014745   0.0012402  -0.0057409   0.0015223   0.0008533
    2  -0.0044184   0.0036055   0.0002815  -0.0036678   0.0024665   0.0024377
    3   0.0031012  -0.0045151  -0.0034930   0.0004606  -0.0043792   0.0063153
           55          56          57          58          59          60
    1  -0.0059527  -0.0030782   0.0065556  -0.0049518  -0.0055214   0.0029409
    2   0.0054224  -0.0039891   0.0211098  -0.0170808   0.0078492  -0.0013559
    3   0.0070227   0.0029294  -0.0030070   0.0026150   0.0019850  -0.0042335
           61          62          63          64          65          66
    1   0.0037040   0.0088364  -0.0099458   0.0109073   0.0153315  -0.0258568
    2  -0.0079952   0.0007049   0.0038997  -0.0074094   0.0035950  -0.0272881
    3  -0.0083013   0.0039964  -0.0045563  -0.0076650   0.0078496  -0.0022576
           67          68          69          70          71          72
    1  -0.0027168  -0.0002617   0.0186243  -0.0177979   0.0068999  -0.0091539
    2   0.0016236  -0.0002511   0.0285688  -0.0015282   0.0050364  -0.0025662
    3   0.0080002  -0.0080574   0.0028417   0.0001202  -0.0061191   0.0077682
           73          74          75          76          77          78
    1   0.0079510  -0.0062804   0.0040969   0.0066282   0.0010394  -0.0020787
    2   0.0078328   0.0079016  -0.0187491   0.0073958  -0.0032445  -0.0008049
    3   0.0005791  -0.0037187   0.0053458   0.0000677  -0.0057513   0.0066984
           79          80          81          82          83          84
    1  -0.0098645   0.0032317   0.0065540  -0.0072887   0.0004206  -0.0024523
    2   0.0167376  -0.0016503  -0.0096624   0.0014807  -0.0015005   0.0022921
    3  -0.0056222   0.0019024   0.0039743   0.0016806  -0.0079409   0.0069100
           85          86          87          88
    1  -0.0049946   0.0071298   0.0025316   0.0027606
    2   0.0076448   0.0001270  -0.0039035   0.0027605
    3  -0.0045529   0.0045494  -0.0033718   0.0000705
 Max gradient component =       3.194E-02
 RMS gradient           =       7.946E-03
 Gradient time:  CPU 3382.90 s  wall 746.82 s
 Geometry Optimization Parameters
   NAtoms,    NIC,     NZ,  NCons,   NDum,   NFix, NCnnct, MaxDiis
       88     628       0       0       0       0       0       0

 Cartesian Hessian Update
 Hessian Updated using BFGS Update


** GEOMETRY OPTIMIZATION IN DELOCALIZED INTERNAL COORDINATES **
   Searching for a Minimum

   Optimization Cycle:   2

                       Coordinates (Angstroms)
     ATOM                X               Y               Z
      1  N         8.0086491915   -3.7857971383    0.0372925637
      2  C         7.1456678671   -2.7025966033   -0.4178113411
      3  C         5.7733854505   -3.2519294708   -0.7036223452
      4  O         5.6352546572   -4.1072355380   -1.5695272662
      5  H         7.1122614756   -1.9236943005    0.3655908956
      6  H         7.5318746253   -2.2331146482   -1.3440242097
      7  H         8.1131907922   -4.4671369565   -0.7310616990
      8  H         8.9440417063   -3.3978461556    0.2319299309
      9  N         4.7124660387   -2.7666687839   -0.0053342531
     10  C         3.3548456289   -3.2321285703   -0.2272864139
     11  C         2.3918981496   -2.3738111264    0.5664815110
     12  O         2.4640626238   -2.3424133159    1.7883293321
     13  C         3.1747379123   -4.7020431684    0.1913988170
     14  H         3.4369991128   -4.8036437531    1.2574910970
     15  H         3.8543086615   -5.3460921525   -0.3892905149
     16  C         1.7629112398   -5.1628229689   -0.0146863677
     17  N         1.1191612244   -5.2024239193   -1.2039143221
     18  C        -0.1302821132   -5.6627120347   -0.9612659018
     19  H        -0.8815897151   -5.7998421763   -1.7244776484
     20  N        -0.3175095934   -5.9241014465    0.3325174775
     21  C         0.8637908230   -5.6111397256    0.9240024280
     22  H         1.0429953687   -5.7061348058    1.9847429752
     23  H         1.5013006242   -4.9333955212   -2.1177386571
     24  H         4.8681746926   -2.0249648386    0.6797296039
     25  H         3.1294068790   -3.1341019452   -1.3071685660
     26  N         1.4569629621   -1.6704344747   -0.1236509257
     27  C         0.4414812047   -0.8633447945    0.5088262889
     28  C        -0.9359718959   -1.3745279781    0.1170142275
     29  O        -1.0578171985   -2.2342408684   -0.7476677279
     30  H         0.5364796963   -0.9371957248    1.6054095866
     31  C         0.6402706112    0.5980608950    0.0919134184
     32  H         1.6231187176    0.9086891734    0.4815548194
     33  H         0.6257328877    0.6579374461   -1.0115425722
     34  O        -0.4110124398    1.3750402798    0.6246514547
     35  H         1.4479840924   -1.7178444277   -1.1429922917
     36  N        -2.0051190468   -0.8540876499    0.7748691899
     37  C        -3.3771457929   -1.2270429150    0.5024895223
     38  C        -4.1224126796    0.0360259486    0.1343423056
     39  O        -4.2097111950    0.9491837575    0.9472254947
     40  H        -3.3952480593   -1.9417775098   -0.3359156878
     41  H        -1.8493421784   -0.1711091816    1.5188769821
     42  C        -3.9694698356   -1.9240458302    1.7411807196
     43  H        -3.2874449692   -2.7617223561    1.9779279309
     44  H        -3.9356211018   -1.2303697035    2.6014666604
     45  C        -5.3898590900   -2.5191728180    1.6255344290
     46  H        -5.5673702061   -3.0549792327    2.5774100765
     47  C        -5.4972366027   -3.5426746626    0.4928384562
     48  H        -6.4892764355   -4.0244098122    0.5076541452
     49  H        -4.7331276177   -4.3312087564    0.6046956796
     50  H        -5.3719016211   -3.0639181727   -0.4933438026
     51  C        -6.4939528970   -1.4655409932    1.5084231964
     52  H        -7.4831714372   -1.9524184586    1.5546093775
     53  H        -6.4468670501   -0.9209870392    0.5551850344
     54  H        -6.4310371233   -0.7431541488    2.3400017808
     55  N        -4.6645859040    0.1321735120   -1.1089150054
     56  C        -5.3858042683    1.2978133600   -1.5551396230
     57  C        -6.8027142731    0.9528532204   -1.9448810850
     58  O        -7.2349729023   -0.1789136869   -1.8779321315
     59  H        -5.4060124520    2.0601322106   -0.7589223291
     60  H        -4.8719020794    1.7360772348   -2.4302693812
     61  H        -4.5636177662   -0.6429087981   -1.7654587923
     62  O        -7.6042791376    1.9380861820   -2.3840222284
     63  H        -7.2390526378    2.8320983959   -2.4265561476
     64  C        -0.2125099562    2.7728231373    0.6558378596
     65  C        -1.6366276160    3.3465738489    0.7426678872
     66  C        -1.7371005035    4.8437004246    0.8378193408
     67  H        -2.1350163221    2.9155050894    1.6288805351
     68  H        -2.2057472317    3.0125847663   -0.1447088093
     69  O        -2.9859195798    5.3273573018    0.9050488939
     70  H        -3.0622840125    6.2881227806    0.9628252247
     71  O        -0.7640548451    5.5777225744    0.8563361207
     72  O         0.4919138529    3.0809575696    1.8256655186
     73  H         0.7200954128    4.0347261382    1.7775043378
     74  C         6.6457052216    5.6376112961    0.1514782404
     75  C         5.2068826698    5.7958776162   -0.2510616202
     76  H         7.1643104521    6.6036941737    0.0702341526
     77  H         7.1502860225    4.9052389078   -0.5022432563
     78  H         6.7156914080    5.2824114514    1.1938687827
     79  N         4.4081165927    4.6975596702   -0.2132319513
     80  C         3.0074192649    4.7648275014   -0.5768728145
     81  H         4.8064227414    3.8044607772    0.0824306645
     82  C         2.3667824810    3.3900437169   -0.4333322834
     83  H         2.9123205158    5.1142852272   -1.6197639039
     84  H         2.4863279030    5.4817493835    0.0821930241
     85  S         0.5961734205    3.4660055200   -0.8815996139
     86  H         2.5009754451    3.0476579576    0.6040112054
     87  H         2.8678730414    2.6575512921   -1.0907382071
     88  O         4.7660614148    6.8823368809   -0.6014243390
   Point Group: c1    Number of degrees of freedom:   258


   Energy is  -2679.343190614

 Hessian Updated using BFGS Update

238 Hessian modes will be used to form the next step
  Hessian Eigenvalues:
     0.002000    0.002001    0.002114    0.002502    0.002618    0.002988
     0.004117    0.004578    0.004728    0.005580    0.006462    0.006644
     0.007495    0.007528    0.007788    0.007817    0.008004    0.008186
     0.008247    0.008271    0.008400    0.008662    0.008756    0.009201
     0.011110    0.011633    0.012132    0.012323    0.012439    0.012783
     0.012840    0.013093    0.013176    0.013242    0.013318    0.013553
     0.014001    0.014212    0.014578    0.016946    0.020374    0.020401
     0.020475    0.020588    0.021034    0.022297    0.022346    0.022628
     0.022709    0.023034    0.024009    0.024523    0.029321    0.031714
     0.036461    0.042875    0.045144    0.045445    0.046407    0.046762
     0.046983    0.047509    0.047769    0.049701    0.050784    0.051463
     0.051545    0.051905    0.052038    0.052410    0.053102    0.053200
[...]
           79          80          81          82          83          84
    1   0.0007420   0.0003582  -0.0001725  -0.0000763  -0.0003473  -0.0004491
    2   0.0009191   0.0001153  -0.0005261   0.0005733  -0.0004236   0.0002869
    3   0.0007813  -0.0004149  -0.0006266   0.0010408   0.0002479  -0.0004244
           85          86          87          88
    1  -0.0017923   0.0001056  -0.0003578   0.0001923
    2  -0.0006912   0.0002852  -0.0002843  -0.0001057
    3  -0.0003396   0.0001627   0.0002075   0.0003394
 Max gradient component =       3.897E-03
 RMS gradient           =       5.672E-04
 Gradient time:  CPU 3511.97 s  wall 808.39 s
 Geometry Optimization Parameters
   NAtoms,    NIC,     NZ,  NCons,   NDum,   NFix, NCnnct, MaxDiis
       88     628       0       0       0       0       0       0

 Cartesian Hessian Update
 Hessian Updated using BFGS Update


** GEOMETRY OPTIMIZATION IN DELOCALIZED INTERNAL COORDINATES **
   Searching for a Minimum

   Optimization Cycle:  25

                       Coordinates (Angstroms)
     ATOM                X               Y               Z
      1  N         7.3711837523   -6.7176683032    0.7997203300
      2  C         6.8751188579   -5.4354653593    1.2577130040
      3  C         5.6284167625   -5.0859535139    0.4742569114
      4  O         5.4896150456   -5.4198133541   -0.6976835290
      5  H         6.6557448455   -5.4749399110    2.3300621393
      6  H         7.5709449006   -4.5876416715    1.1191031587
      7  H         7.2569583340   -6.7289319522   -0.2083094808
      8  H         8.3654678350   -6.7759997669    0.9758935469
      9  N         4.7175481712   -4.3277787447    1.1235228085
     10  C         3.4958562705   -3.9201387267    0.4849893275
     11  C         2.8870472101   -2.8144976482    1.3163884158
     12  O         2.9611502433   -2.8409662511    2.5389487318
     13  C         2.4859755863   -5.0961174666    0.4234653344
     14  H         2.3173859975   -5.4306765613    1.4497203192
     15  H         2.9843323261   -5.9121531821   -0.1094222129
     16  C         1.1829234130   -4.7519737665   -0.1896642087
     17  N         1.0402224491   -4.4527803707   -1.5305935236
     18  C        -0.2683002256   -4.1577318890   -1.7499662074
     19  H        -0.6394562521   -3.8840583652   -2.7233789071
     20  N        -0.9774768407   -4.2350406023   -0.6519011148
     21  C        -0.0775295079   -4.5896113237    0.3234889673
     22  H        -0.3884046248   -4.7225540864    1.3481866346
     23  H         1.7618863660   -4.5237053151   -2.2298386838
     24  H         4.7635111330   -4.1701145819    2.1188061971
     25  H         3.7278533805   -3.5890009183   -0.5309034789
     26  N         2.2254318400   -1.8689598141    0.6133900748
     27  C         1.1617343252   -1.1045271530    1.2190248200
     28  C        -0.0562108759   -1.2713892971    0.3199624997
     29  O         0.0915803057   -1.3250449561   -0.8977077948
     30  H         0.9966372637   -1.4821571974    2.2299522953
     31  C         1.5214295408    0.3704044585    1.2811264018
     32  H         2.4282423760    0.5289839483    1.8694685189
     33  H         1.6747507439    0.7486561739    0.2655323367
     34  O         0.4080806989    1.0177113704    1.8871468142
     35  H         2.0786139060   -2.0108711912   -0.3774401190
     36  N        -1.2318877213   -1.3461827171    0.9650179174
     37  C        -2.5060094240   -1.2586344844    0.2742890268
     38  C        -3.0139278824    0.1457453665    0.5452990020
     39  O        -3.1572421947    0.5465350428    1.6990970663
     40  H        -2.2854382813   -1.4209483084   -0.7800660932
     41  H        -1.2516350987   -1.0821154211    1.9380720015
     42  C        -3.4577766578   -2.3235764941    0.8132854246
     43  H        -2.9087595665   -3.2662663806    0.7709998655
     44  H        -3.6572901956   -2.0922389481    1.8661620941
     45  C        -4.7796991438   -2.5018847649    0.0613775442
     46  H        -5.2488689827   -3.3794824747    0.5255358827
     47  C        -4.5493764177   -2.8319949517   -1.4083566741
     48  H        -5.4786570200   -3.1465698027   -1.8900902779
     49  H        -3.8097083363   -3.6296184522   -1.5206971461
     50  H        -4.1901789075   -1.9564263002   -1.9615090307
     51  C        -5.7522909746   -1.3378071904    0.2206738412
     52  H        -6.7493624667   -1.6198300873   -0.1271193026
     53  H        -5.4514291560   -0.4683223853   -0.3705653351
     54  H        -5.8346305747   -1.0240179912    1.2645256118
     55  N        -3.2294896392    0.9279791039   -0.5290884849
     56  C        -3.7891994698    2.2387654271   -0.3986322384
     57  C        -4.6754296230    2.5306360699   -1.5815463934
     58  O        -4.8356166737    1.7704101199   -2.5000793411
     59  H        -4.3492107781    2.2854108997    0.5408686103
     60  H        -3.0023269072    3.0044057531   -0.3365371804
     61  H        -3.1784183649    0.5513689738   -1.4632765687
     62  O        -5.2736991059    3.7369079154   -1.5641348505
     63  H        -5.0423259485    4.2021139226   -0.7462440763
     64  C         0.2610416318    2.3575917250    1.5825539962
     65  C        -0.9090476924    2.8392778493    2.4353494446
     66  C        -1.1211594989    4.3071247904    2.2702287360
     67  H        -0.6460589175    2.6465551251    3.4811014711
     68  H        -1.8138615898    2.2715469792    2.2102107386
     69  O        -2.4077877033    4.6534560694    2.1456388458
     70  H        -2.4126599015    5.6249040396    2.0918929606
     71  O        -0.2302967071    5.1375471225    2.2906365785
     72  O         1.4452086620    3.0151931808    1.8455491434
     73  H         1.2259093521    3.9579076493    1.9820379377
     74  C         2.8893880125    7.5721723250   -2.8223904590
     75  C         1.6820816686    6.9617298356   -2.1534068213
     76  H         2.6624143003    8.6000562576   -3.0889792496
     77  H         3.1584311158    7.0228137685   -3.7281327920
     78  H         3.7607056536    7.5609999828   -2.1618061352
     79  N         1.8579812593    5.6853951508   -1.7111493915
     80  C         0.8031557628    4.9909928352   -1.0061260789
     81  H         2.7750820640    5.2715567787   -1.7424725043
     82  C         1.0920122194    3.5041712884   -0.9625891308
     83  H        -0.1358626365    5.1801084184   -1.5296347999
     84  H         0.6764386373    5.3878850146    0.0070434269
     85  S        -0.2635684517    2.5470788340   -0.2350395763
     86  H         1.9982224665    3.2907341453   -0.3903629638
     87  H         1.2310769279    3.1166029339   -1.9747292852
     88  O         0.6178467185    7.5444793113   -2.0247321537
   Point Group: c1    Number of degrees of freedom:   258


   Energy is  -2679.411597460

 Hessian Updated using BFGS Update

258 Hessian modes will be used to form the next step
  Hessian Eigenvalues:
     0.001668    0.002157    0.002703    0.003859    0.004247    0.004425
     0.004749    0.005012    0.005522    0.005947    0.006197    0.007590
     0.007826    0.007867    0.008114    0.008291    0.008446    0.008710
     0.008969    0.009137    0.009967    0.010570    0.011563    0.011753
     0.012306    0.012617    0.012957    0.013283    0.013557    0.013902
     0.014172    0.014384    0.016311    0.016773    0.017971    0.018459
     0.020250    0.020907    0.021059    0.022130    0.022284    0.022377
     0.022708    0.023006    0.023766    0.024242    0.024598    0.029408
     0.031649    0.033678    0.035572    0.037546    0.039696    0.042205
     0.044978    0.045318    0.046330    0.046788    0.047494    0.048245
     0.050319    0.050621    0.051004    0.052011    0.053088    0.053210
     0.053748    0.054575    0.055270    0.055467    0.056008    0.057092
     0.057146    0.057911    0.058396    0.059710    0.060604    0.060889
     0.063800    0.065878    0.066580    0.068532    0.074448    0.075755
     0.076592    0.078938    0.087469    0.091295    0.091906    0.092809
     0.094664    0.096684    0.097990    0.099890    0.105948    0.109644
     0.111788    0.117477    0.126559    0.128835    0.129400    0.131308
     0.132638    0.135111    0.139870    0.141366    0.155096    0.157449
     0.159015    0.159372    0.159915    0.159985    0.160002    0.160005
     0.160008    0.160018    0.160024    0.160053    0.160079    0.160154
     0.160256    0.160316    0.160522    0.160675    0.161674    0.162995
     0.164518    0.171936    0.174695    0.177007    0.178395    0.180624
     0.187397    0.194024    0.200317    0.203805    0.204949    0.208518
     0.218384    0.218847    0.219807    0.220176    0.221174    0.222554
     0.225645    0.229732    0.231510    0.235610    0.236584    0.240188
     0.242611    0.245822    0.248307    0.249427    0.249662    0.249895
     0.249983    0.250380    0.251294    0.252192    0.252463    0.254811
     0.262004    0.267056    0.271043    0.274220    0.277081    0.278427
     0.286768    0.289292    0.290675    0.293825    0.294726    0.300511
     0.305576    0.306983    0.311934    0.315007    0.316532    0.318713
     0.319847    0.322230    0.322651    0.322824    0.323006    0.323265
     0.323429    0.323432    0.323618    0.323786    0.323906    0.324008
     0.324372    0.324740    0.324931    0.324992    0.325050    0.325227
     0.325257    0.325569    0.325640    0.325769    0.325877    0.326073
     0.326324    0.327162    0.327862    0.329740    0.330369    0.333663
     0.343398    0.357374    0.357638    0.362317    0.369172    0.369508
     0.373515    0.376825    0.379723    0.385103    0.403940    0.404731
     0.406302    0.416474    0.421943    0.424036    0.425354    0.425854
     0.431075    0.439819    0.445092    0.449381    0.451219    0.475807
     0.490397    0.497544    0.508490    0.520144    0.521254    0.523170
     0.530052    0.532321    0.538903    0.539522    0.550313    0.556235
     0.557570    0.571581    0.626391    0.931955    0.936583    0.938357
     0.939855    0.941991    0.947217    0.948962    1.008548    1.230410

 Minimum Search - Taking Simple RFO Step
 Searching for Lamda that Minimizes Along All modes
 Value Taken    Lamda =  -0.00090780
 Step Taken.  Stepsize is  0.271996

                             Maximum     Tolerance    Cnvgd?
         Gradient           0.005555      0.000300      NO
         Displacement       0.079588      0.001200      NO
         Energy change     -0.000120      0.000001      NO


 New Cartesian Coordinates Obtained by Inverse Iteration

 Displacement from previous Coordinates is:  2.024333
 ----------------------------------------------------------------
             Standard Nuclear Orientation (Angstroms)
    I     Atom           X                Y                Z
 ----------------------------------------------------------------
    1      N       7.4004834104    -6.6484669581     0.7785076878
    2      C       6.8931549340    -5.3741548862     1.2459449820
    3      C       5.6530291871    -5.0209287920     0.4542168716
    4      O       5.5254012842    -5.3456530121    -0.7214390642
    5      H       6.6637830120    -5.4261574970     2.3157970738
    6      H       7.5855475257    -4.5212677040     1.1224340948
    7      H       7.2957530423    -6.6463129962    -0.2308148062
    8      H       8.3932777126    -6.7035330658     0.9622645554
    9      N       4.7313594539    -4.2758396410     1.1040640336
   10      C       3.5093251625    -3.8770610151     0.4621777017
   11      C       2.8898139671    -2.7781450315     1.2954653206
   12      O       2.9594197547    -2.8092561442     2.5174576291
   13      C       2.5094320311    -5.0601572087     0.3946025677
   14      H       2.3530232185    -5.4093868022     1.4175548641
   15      H       3.0084658326    -5.8647799513    -0.1548798379
   16      C       1.1981471974    -4.7167662218    -0.2008969879
   17      N       1.0396583433    -4.3989924539    -1.5355356812
   18      C      -0.2737802993    -4.1165599617    -1.7389532462
   19      H      -0.6561251208    -3.8300464659    -2.7043181086
   20      N      -0.9728265023    -4.2288767210    -0.6370022397
   21      C      -0.0591039911    -4.5782052739     0.3269851835
   22      H      -0.3583492033    -4.7305686155     1.3525969920
   23      H       1.7554566224    -4.4491832644    -2.2424008229
   24      H       4.7712204780    -4.1257662042     2.1005715125
   25      H       3.7417410420    -3.5416171830    -0.5526809137
   26      N       2.2247373100    -1.8304919855     0.5965918401
   27      C       1.1549256000    -1.0765562963     1.2048344241
   28      C      -0.0714923397    -1.2469913624     0.3141367362
   29      O       0.0653660471    -1.2960766839    -0.9045154756
   30      H       0.9995568000    -1.4603961184     2.2145470239
   31      C       1.5059593694     0.3997068305     1.2699863346
   32      H       2.4050892087     0.5620715713     1.8695361557
   33      H       1.6693731914     0.7748318914     0.2550520451
   34      O       0.3818358300     1.0418133127     1.8613279867
   35      H       2.0785563356    -1.9683457221    -0.3945733108
   36      N      -1.2443220809    -1.3327654458     0.9665261202
   37      C      -2.5259258170    -1.2608074073     0.2836765705
   38      C      -3.0566092173     0.1357980105     0.5526375815
   39      O      -3.1854393325     0.5424333861     1.7065741971
   40      H      -2.3118292479    -1.4217487381    -0.7726283899
   41      H      -1.2607451230    -1.0536260548     1.9361771053
   42      C      -3.4626337327    -2.3372962861     0.8246122891
   43      H      -2.9082980459    -3.2762762751     0.7647507585
   44      H      -3.6494804971    -2.1177503010     1.8820854589
   45      C      -4.7940024418    -2.5145624723     0.0891376232
   46      H      -5.2461886574    -3.4090141693     0.5379343641
   47      C      -4.5791308056    -2.8063861953    -1.3904466886
   48      H      -5.5115524904    -3.1184767632    -1.8677458626
   49      H      -3.8330039740    -3.5929548357    -1.5324006224
   50      H      -4.2359698867    -1.9140828133    -1.9268176826
   51      C      -5.7769746930    -1.3644808361     0.2884764322
   52      H      -6.7769709357    -1.6505131218    -0.0471784140
   53      H      -5.4945695474    -0.4796656076    -0.2903008905
   54      H      -5.8455561593    -1.0715056549     1.3392500581
   55      N      -3.3365312220     0.8919633328    -0.5256435040
   56      C      -3.9412769231     2.1818073147    -0.4001196653
   57      C      -4.8457586498     2.4261701616    -1.5795924644
   58      O      -4.9747122979     1.6533294362    -2.4921294094
   59      H      -4.4964730067     2.2181514430     0.5424502526
   60      H      -3.1827438139     2.9767250300    -0.3556946280
   61      H      -3.2898145335     0.5066106661    -1.4564698270
   62      O      -5.4936946096     3.6062629919    -1.5690853993
   63      H      -5.2813443375     4.0828774960    -0.7530170296
   64      C       0.2285121560     2.3822260633     1.5626861340
   65      C      -0.9533018001     2.8456837071     2.4083131990
   66      C      -1.1809717571     4.3105651320     2.2440503420
   67      H      -0.6925330265     2.6593897415     3.4552747259
   68      H      -1.8467317901     2.2639954184     2.1776990442
   69      O      -2.4693872190     4.6412798952     2.0881800106
   70      H      -2.4798631865     5.6116742108     2.0196195193
   71      O      -0.2969538550     5.1480249375     2.2583750670
   72      O       1.4061319912     3.0461058591     1.8376683931
   73      H       1.1807096665     3.9867499151     1.9764723578
   74      C       3.1094562525     7.4728938733    -2.7879321385
   75      C       1.8951078135     6.9163903708    -2.0854081888
   76      H       2.9438364611     8.5257136200    -2.9966065318
   77      H       3.2904929968     6.9501368935    -3.7305377000
   78      H       4.0108053132     7.3698374105    -2.1773470969
   79      N       2.0072482726     5.6162346552    -1.6933723213
   80      C       0.9431704452     4.9693557891    -0.9586800821
   81      H       2.8999713222     5.1556608521    -1.7602596187
   82      C       1.1124123243     3.4663545809    -1.0016813495
   83      H      -0.0041632518     5.2575020432    -1.4178376518
   84      H       0.9048336301     5.3201595905     0.0777654072
   85      S      -0.2839708826     2.5828962721    -0.2559328286
   86      H       2.0259414752     3.1525712252    -0.4890708411
   87      H       1.1689595346     3.1268720790    -2.0384479910
   88      O       0.8756971399     7.5593627688    -1.8956381557
 ----------------------------------------------------------------
 Molecular Point Group                 C1    NOp =  1
 Largest Abelian Subgroup              C1    NOp =  1
 Nuclear Repulsion Energy =  6574.9609764050 hartrees
 There are      179 alpha and      179 beta electrons
 Applying Cartesian multipole field
    Component          Value
    ---------          -----
     (2,0,0)        1.00000E-12
     (0,2,0)        2.00000E-12
     (0,0,2)       -3.00000E-11
 Nucleus-field energy     =    -0.0000000289 hartrees
 Requested basis set is 6-31G(d)
 There are 269 shells and 778 basis functions
 A cutoff of  1.0D-11 yielded  13913 shell pairs
 There are    120652 function pairs
 Smallest overlap matrix eigenvalue = 1.08E-03
 Guess MOs from SCF MO coefficient file

 -----------------------------------------------------------------------
  General SCF calculation program by
  Eric Jon Sundstrom, Paul Horn, Yuezhi Mao, Dmitri Zuev, Alec White,
  David Stuck, Shaama M.S., Shane Yost, Joonho Lee, David Small,
  Daniel Levine, Susi Lehtola, Hugh Burton, Evgeny Epifanovsky
 -----------------------------------------------------------------------
 Exchange:  B97M-V      Correlation:  B97M-V
 Using SG-2 standard quadrature grid
 Nonlocal Correlation:  VV10 with C = 0.0100 and b = 6.00 and scale = 1.00000
 Grid used for NLC:  SG-1 standard quadrature
 using 8 threads for integral computing
 -------------------------------------------------------
 OpenMP Integral computing Module                
 Release: version 1.0, May 2013, Q-Chem Inc. Pittsburgh 
 -------------------------------------------------------
 -------------------------------------------------------
 OpenMP BLAS3 based DFT computing Module                
 Release: version 1.0, May 2013, Q-Chem Inc. Pittsburgh 
 -------------------------------------------------------
 -------------------------------------------------------
 OpenMP BLAS3 based DFT computing Module                
 Release: version 1.0, May 2013, Q-Chem Inc. Pittsburgh 
 -------------------------------------------------------
 -------------------------------------------------------
 OpenMP BLAS3 based DFT computing Module                
 Release: version 1.0, May 2013, Q-Chem Inc. Pittsburgh 
 -------------------------------------------------------
 Nonlocal correlation = 1.331015362251
 A restricted SCF calculation will be
 performed using DIIS
 SCF converges when DIIS error is below 1.0e-08
 ---------------------------------------
  Cycle       Energy         DIIS error
 ---------------------------------------
 Nonlocal correlation = 1.330983985838e+00
    1   -2679.3890664513      4.05e-04  
 Nonlocal correlation = 1.331038149207e+00
    2   -2679.4116802355      4.20e-05  
 Nonlocal correlation = 1.330996721856e+00
    3   -2679.4115641735      6.10e-05  
 Nonlocal correlation = 1.330998952618e+00
    4   -2679.4117714519      2.15e-05  
 Nonlocal correlation = 1.331002528526e+00
    5   -2679.4117979358      6.07e-06  
 Nonlocal correlation = 1.331002480996e+00
    6   -2679.4118003019      1.56e-06  
 Nonlocal correlation = 1.331002243241e+00
    7   -2679.4118004226      8.59e-07  
 Nonlocal correlation = 1.331002177119e+00
    8   -2679.4118004661      3.35e-07  
