
Running Job 1 of 1 GHSLG_malonate_SNAC_b3lyp.in
qchem GHSLG_malonate_SNAC_b3lyp.in_23268.0 /scr/c295_krishna/156872/qchem23268/ 1
/usr/software/qchem_511/exe/qcprog.exe_s GHSLG_malonate_SNAC_b3lyp.in_23268.0 /scr/c295_krishna/156872/qchem23268/
Check license passed

                  Welcome to Q-Chem
     A Quantum Leap Into The Future Of Chemistry


 Q-Chem 5.1, Q-Chem, Inc., Pleasanton, CA (2018)

 Yihan Shao,  Zhengting Gan,  E. Epifanovsky,  A. T. B. Gilbert,  M. Wormit,  
 J. Kussmann,  A. W. Lange,  A. Behn,  Jia Deng,  Xintian Feng,  D. Ghosh,  
 M. Goldey,  P. R. Horn,  L. D. Jacobson,  I. Kaliman,  T. Kus,  A. Landau,  
 Jie Liu,  E. I. Proynov,  R. M. Richard,  R. P. Steele,  E. J. Sundstrom,  
 H. L. Woodcock III,  P. M. Zimmerman,  D. Zuev,  B. Albrecht,  E. Alguire,  
 S. A. Baeppler,  D. Barton,  Z. Benda,  Y. A. Bernard,  E. J. Berquist,  
 K. B. Bravaya,  H. Burton,  D. Casanova,  Chun-Min Chang,  Yunqing Chen,  
 A. Chien,  K. D. Closser,  M. P. Coons,  S. Coriani,  S. Dasgupta,  
 A. L. Dempwolff,  M. Diedenhofen,  Hainam Do,  R. G. Edgar,  Po-Tung Fang,  
 S. Faraji,  S. Fatehi,  Qingguo Feng,  K. D. Fenk,  J. Fosso-Tande,  
 Qinghui Ge,  A. Ghysels,  G. Gidofalvi,  J. Gomes,  J. Gonthier,  A. Gunina,  
 D. Hait,  M. W. D. Hanson-Heine,  P. H. P. Harbach,  A. W. Hauser,  
 J. E. Herr,  E. G. Hohenstein,  Z. C. Holden,  Kerwin Hui,  B. C. Huynh,  
 T.-C. Jagau,  Hyunjun Ji,  B. Kaduk,  K. Khistyaev,  Jaehoon Kim,  
 P. Klunzinger,  K. Koh,  D. Kosenkov,  L. Koulias,  T. Kowalczyk,  
 C. M. Krauter,  A. Kunitsa,  Ka Un Lao,  A. Laurent,  K. V. Lawler,  
 Joonho Lee,  D. Lefrancois,  S. Lehtola,  D. S. Levine,  Yi-Pei Li,  
 You-Sheng Lin,  Fenglai Liu,  E. Livshits,  A. Luenser,  P. Manohar,  
 E. Mansoor,  S. F. Manzer,  Shan-Ping Mao,  Yuezhi Mao,  N. Mardirossian,  
 A. V. Marenich,  T. Markovich,  L. A. Martinez-Martinez,  S. A. Maurer,  
 N. J. Mayhall,  S. C. McKenzie,  J.-M. Mewes,  A. F. Morrison,  
 J. W. Mullinax,  K. Nanda,  T. S. Nguyen-Beck,  R. Olivares-Amaya,  
 J. A. Parkhill,  T. M. Perrine,  F. Plasser,  P. Pokhilko,  S. Prager,  
 A. Prociuk,  E. Ramos,  D. R. Rehn,  F. Rob,  M. Schneider,  N. Sergueev,  
 S. M. Sharada,  S. Sharma,  D. W. Small,  T. Stauch,  T. Stein,  
 Yu-Chuan Su,  A. J. W. Thom,  A. Tkatchenko,  T. Tsuchimochi,  N. M. Tubman,  
 L. Vogt,  M. L. Vidal,  O. Vydrov,  M. A. Watson,  J. Wenzel,  
 M. de Wergifosse,  T. A. Wesolowski,  A. White,  J. Witte,  A. Yamada,  
 Jun Yang,  K. Yao,  S. Yeganeh,  S. R. Yost,  Zhi-Qiang You,  A. Zech,  
 Igor Ying Zhang,  Xing Zhang,  Yan Zhao,  Ying Zhu,  B. R. Brooks,  
 G. K. L. Chan,  C. J. Cramer,  M. S. Gordon,  W. J. Hehre,  A. Klamt,  
 M. W. Schmidt,  C. D. Sherrill,  D. G. Truhlar,  A. Aspuru-Guzik,  R. Baer,  
 A. T. Bell,  N. A. Besley,  Jeng-Da Chai,  A. E. DePrince, III,  
 R. A. DiStasio Jr.,  A. Dreuw,  B. D. Dunietz,  T. R. Furlani,  
 Chao-Ping Hsu,  Yousung Jung,  Jing Kong,  D. S. Lambrecht,  WanZhen Liang,  
 C. Ochsenfeld,  V. A. Rassolov,  L. V. Slipchenko,  J. E. Subotnik,  
 T. Van Voorhis,  J. M. Herbert,  A. I. Krylov,  P. M. W. Gill,  M. Head-Gordon

 Contributors to earlier versions of Q-Chem not listed above: 
 R. D. Adamson,  B. Austin,  J. Baker,  G. J. O. Beran,  K. Brandhorst,  
 S. T. Brown,  E. F. C. Byrd,  A. K. Chakraborty,  C.-L. Cheng,  
 Siu Hung Chien,  D. M. Chipman,  D. L. Crittenden,  H. Dachsel,  
 R. J. Doerksen,  A. D. Dutoi,  L. Fusti-Molnar,  W. A. Goddard III,  
 A. Golubeva-Zadorozhnaya,  S. R. Gwaltney,  G. Hawkins,  A. Heyden,  
 S. Hirata,  G. Kedziora,  F. J. Keil,  C. Kelley,  Jihan Kim,  R. A. King,  
 R. Z. Khaliullin,  P. P. Korambath,  W. Kurlancheek,  A. M. Lee,  M. S. Lee,  
 S. V. Levchenko,  Ching Yeh Lin,  D. Liotard,  R. C. Lochan,  I. Lotan,  
 P. E. Maslen,  N. Nair,  D. P. O'Neill,  D. Neuhauser,  E. Neuscamman,  
 C. M. Oana,  R. Olson,  B. Peters,  R. Peverati,  P. A. Pieniazek,  
 Y. M. Rhee,  J. Ritchie,  M. A. Rohrdanz,  E. Rosta,  N. J. Russ,  
 H. F. Schaefer III,  N. E. Schultz,  N. Shenvi,  A. C. Simmonett,  A. Sodt,  
 D. Stuck,  K. S. Thanthiriwatte,  V. Vanovschi,  Tao Wang,  A. Warshel,  
 C. F. Williams,  Q. Wu,  X. Xu,  W. Zhang

 Please cite Q-Chem as follows:
 Y. Shao et al., Mol. Phys. 113, 184-215 (2015)
 DOI: 10.1080/00268976.2014.952696

 Q-Chem 5.1.1 for Intel X86 EM64T Linux

 Parts of Q-Chem use Armadillo 8.300.2 (Tropical Shenanigans).
 http://arma.sourceforge.net/

 Q-Chem begins on Tue Nov 27 10:57:00 2018  

Host: cub-0-9.local
0

     Scratch files written to /scr/c295_krishna/156872/qchem23268//
 Aug318 |scratch|qcdevops|jenkins|workspace|build_RNUM -1
Processing $rem in /usr/software/qchem_511/config/preferences.
 MEM_TOTAL  2000 
Input Ideriv = 2
Curr. Ideriv = -1
Max.  Ideriv = 2

 Q-Chem warning in module libgen/rem_setup.C, line 1963:

 Setting Thresh to 1e-14


Checking the input file for inconsistencies... 	...done.

--------------------------------------------------------------
User input:
--------------------------------------------------------------
$molecule
0 1
N   -4.5722100    3.6658940    0.2594540
C   -3.1717390    4.0011980    0.0129700
H   -5.1652050    4.4659870   -0.0594230
H   -4.7214260    3.5520390    1.2887680
C   -2.2512870    2.8701710    0.3983790
H   -2.9002790    4.9115130    0.5917360
H   -3.0373690    4.2071660   -1.0699480
N   -0.9027050    3.0165070    0.2484000
C    0.0576540    1.9702610    0.5946450
H   -0.5525140    3.9253420   -0.0955150
C    1.4581650    2.5963290    0.6429440
N    2.4562910    2.3095330   -0.2520820
C    3.7656960    2.9645830   -0.2260590
H    2.2912200    1.6370010   -1.0119220
C    4.8957090    1.9529360   -0.0924940
N    6.1590070    2.3897370    0.1880620
C    7.3254690    1.5178700    0.2943860
H    6.2983430    3.4044700    0.3102700
C    8.5599150    2.3920130    0.4103710
N    9.5038580    2.3879560   -0.5737060
C   10.6911080    3.2278190   -0.5465110
H    9.3711350    1.7766190   -1.3938240
C   11.9519860    2.4039170   -0.5963890
H   10.7266840    3.8598790    0.3662530
H   10.6701370    3.9016510   -1.4291150
O   13.1554990    3.0140740   -0.6006030
H   13.2336620    3.9780810   -0.5712470
O   -2.7184370    1.8362210    0.8575600
O    1.6494410    3.4394980    1.5086120
O    4.6751470    0.7620390   -0.2491380
O    8.6818760    3.1210140    1.3861430
O   11.9028540    1.1841210   -0.6347590
C   -0.1128520    0.7514590   -0.3559880
H   -0.1748770    1.6241170    1.6277440
C    0.4560960   -0.5244620    0.2164440
H    0.2755700    0.9713190   -1.3702940
H   -1.1908090    0.5418790   -0.5003220
C    1.7536240   -0.7967150    0.5952420
N    1.8229720   -2.0587600    1.0620320
H    2.5938770   -0.1341820    0.5539800
C    0.5665760   -2.5344710    0.9607960
N   -0.2821720   -1.6237550    0.4534780
H    0.2751400   -3.5335530    1.2564510
H   -1.3041520   -1.7523850    0.2815020
C    3.9236300    3.8034770   -1.5118670
H    3.8433630    3.6463070    0.6487400
O    5.2020830    4.3198190   -1.6179970
H    3.1491740    4.6024220   -1.5199630
H    3.7514190    3.1587540   -2.4004240
C    7.1842260    0.5550130    1.5108590
H    7.3856470    0.9273620   -0.6444010
C    8.2722760   -0.5367310    1.7106190
H    6.2305720    0.0003240    1.4068680
H    7.0982770    1.1541100    2.4440700
C    9.6442670    0.0124930    2.1228140
H   10.1240830    0.5880990    1.3122430
H   10.3256920   -0.8290070    2.3712440
H    9.5460530    0.6533700    3.0245040
C    8.4025170   -1.4513950    0.4856490
H    7.9234940   -1.1631670    2.5621760
H    8.7869630   -0.8912020   -0.3921750
H    7.4165010   -1.8946760    0.2304360
H    9.1091360   -2.2807910    0.7020020
C    5.5628750    5.6254470   -1.5979870
C    7.0160410    5.9576510   -1.8180180
C    7.3079590    7.4356380   -1.7631740
H    7.3241670    5.5717620   -2.8129980
H    7.6108430    5.4289440   -1.0426100
O    8.1637010    7.9385240   -0.8476870
H    8.6105510    7.3745550   -0.2009430
O    4.7373610    6.5012400   -1.3831420
O    6.7805320    8.1899110   -2.5654440
C   -1.8866100    7.2580390   -1.2908810
C   -1.0446330    8.0604730   -2.2346410
H   -1.7788270    6.1823560   -1.5359270
H   -2.9575170    7.5417620   -1.3747040
H   -1.5497790    7.4308750   -0.2473550
N    0.2977940    7.8543170   -2.2860860
C    1.1532970    8.6011660   -3.1898300
H    0.7130450    7.1428750   -1.6633410
C    2.6101690    8.1722400   -3.0360400
H    1.0693310    9.6870760   -2.9652360
H    0.8289350    8.4194740   -4.2378060
S    3.6832320    9.1125510   -4.1636450
H    2.7300310    7.0861350   -3.2396120
H    2.9513450    8.3561940   -1.9955940
O   -1.5758600    8.8941460   -2.9550370
H    3.3865340    8.2790690   -5.2590480
$end

$rem
BASIS  =  6-31G
JOB_TYPE  =  Optimization
METHOD  =  B3LYP
SCF_CONVERGENCE  =  500
SCF_ALGORITHM = DIIS_GDM
--------------------------------------------------------------
 ----------------------------------------------------------------
             Standard Nuclear Orientation (Angstroms)
    I     Atom           X                Y                Z
 ----------------------------------------------------------------
    1      N       8.3270040355    -2.0634077217    -0.7023902034
    2      C       7.0498428046    -1.3586025017    -0.6210824633
    3      H       9.0962145326    -1.3550575556    -0.7078375100
    4      H       8.3726412089    -2.5869731649    -1.6071068227
    5      C       5.8871666396    -2.3170839654    -0.5540639909
    6      H       6.9329232451    -0.6980402702    -1.5083937776
    7      H       7.0419190779    -0.7352785198     0.2979354564
    8      N       4.6139229869    -1.8301021339    -0.4886374470
    9      C       3.4329717097    -2.6887306738    -0.4185174594
   10      H       4.4880786105    -0.8055198816    -0.5245083578
   11      C       2.1948517998    -1.8335856187    -0.7210253412
   12      N       1.2277052666    -1.5328465859     0.2029674162
   13      C       0.0861301924    -0.6634270907    -0.0889662139
   14      H       1.3040295296    -1.8877223939     1.1648106048
   15      C      -1.2372934052    -1.3731545682     0.1621025633
   16      N      -2.3983894079    -0.8061952167    -0.2804375885
   17      C      -3.7260862921    -1.3718715870    -0.0583527311
   18      H      -2.3309035662     0.0911410437    -0.7846852205
   19      C      -4.7553627704    -0.3559548233    -0.5165431850
   20      N      -5.6039255672     0.2206199386     0.3817636180
   21      C      -6.5877992455     1.2287298900     0.0193013436
   22      H      -5.5418827007    -0.0493274062     1.3753535585
   23      C      -7.9859811785     0.7860069945     0.3659991538
   24      H      -6.5576239978     1.4608534553    -1.0665677645
   25      H      -6.3611327962     2.1628476605     0.5756514846
   26      O      -9.0314674546     1.6029911321     0.1205440074
   27      H      -8.9080923507     2.4761652877    -0.2777350445
   28      O       6.0923537886    -3.5235600289    -0.5751034265
   29      O       2.1208718948    -1.3593540790    -1.8464288144
   30      O      -1.2599048355    -2.4339280252     0.7668082763
   31      O      -4.7937832775    -0.0412687442    -1.6988902050
   32      O      -8.1905315285    -0.3073641561     0.8704663711
   33      C       3.4143591858    -3.4641264196     0.9293210781
   34      H       3.5109506582    -3.4410804939    -1.2364837852
   35      C       2.5502814614    -4.7013182037     0.8837053443
   36      H       3.1565590719    -2.7978848633     1.7764857736
   37      H       4.4322298701    -3.8370419303     1.1565228951
   38      C       1.2001547380    -4.8014628163     0.6223293337
   39      N       0.8339241461    -6.0970491493     0.6751577203
   40      H       0.5225670009    -4.0039029101     0.3955018943
   41      C       1.9669016213    -6.7650846852     0.9669986967
   42      N       3.0225578099    -5.9428712053     1.0962401690
   43      H       2.0201332031    -7.8396088888     1.0813481534
   44      H       4.0048313244    -6.2201624967     1.3171764141
   45      C       0.2026814009     0.6108046380     0.7740157221
   46      H       0.0884625969    -0.3629991496    -1.1593823375
   47      O      -0.9279825460     1.3984560530     0.6577444937
   48      H       1.1256316361     1.1607297735     0.4843504621
   49      H       0.3012952162     0.3278889395     1.8441054102
   50      C      -3.8797351249    -2.7277402146    -0.8099257802
   51      H      -3.8390088621    -1.5355974789     1.0343889798
   52      C      -5.1838951747    -3.5437562010    -0.5886876820
   53      H      -3.0582750589    -3.3986765741    -0.4889931893
   54      H      -3.7394748308    -2.5598984268    -1.9004959984
   55      C      -6.4371676617    -2.9012462018    -1.1972926430
   56      H      -6.7246768788    -1.9716534943    -0.6759800158
   57      H      -7.2960653245    -3.6006754541    -1.1120091669
   58      H      -6.2738758713    -2.6866645616    -2.2746526970
   59      C      -5.4118375304    -3.8755596406     0.8918774844
   60      H      -5.0378175395    -4.5054781862    -1.1299569471
   61      H      -5.6046135318    -2.9556024103     1.4823908261
   62      H      -4.5243362173    -4.3964592852     1.3100452163
   63      H      -6.2903982899    -4.5464262204     1.0018128317
   64      C      -1.0079994621     2.6449986946     0.1333739400
   65      C      -2.3391441846     3.3487184604     0.1907915427
   66      C      -2.3185047618     4.7218657697    -0.4310685995
   67      H      -2.6468555932     3.4451354800     1.2537377314
   68      H      -3.0870391745     2.7126847120    -0.3294893742
   69      O      -3.1152764820     5.0185381414    -1.4800897987
   70      H      -3.7167858256     4.3665227980    -1.8661937466
   71      O      -0.0356482821     3.1686567533    -0.3909928566
   72      O      -1.5871116024     5.5858072018     0.0265484894
   73      C       6.5746962314     2.3466459379    -0.6840666705
   74      C       5.9913689654     3.6106943884    -0.1314190920
   75      H       6.2625715612     1.4955741240    -0.0460905020
   76      H       7.6844665904     2.3960994507    -0.7022583971
   77      H       6.2053602669     2.1832435591    -1.7180707933
   78      N       4.6430756889     3.7421662910    -0.0215213477
   79      C       4.0319706575     4.9441364855     0.5153588265
   80      H       4.0432852848     2.9595767968    -0.3284408847
   81      C       2.5103037484     4.8232475080     0.5198947851
   82      H       4.3245233889     5.8173945647    -0.1079601195
   83      H       4.3876238193     5.1040156590     1.5567165292
   84      S       1.7440894833     6.3318142374     1.1864412108
   85      H       2.1811566971     3.9498417315     1.1234319400
   86      H       2.1392855344     4.6719675976    -0.5155895893
   87      O       6.7370374867     4.5143261848     0.2201647903
   88      H       1.9398585627     5.9295572701     2.5215417612
 ----------------------------------------------------------------
 Molecular Point Group                 C1    NOp =  1
 Largest Abelian Subgroup              C1    NOp =  1
 Nuclear Repulsion Energy =  6061.0011849916 hartrees
 There are      179 alpha and      179 beta electrons
 Requested basis set is 6-31G
 There are 223 shells and 502 basis functions

 Total QAlloc Memory Limit   2000 MB
 Mega-Array Size       188 MB
 MEM_STATIC part       192 MB
 A cutoff of  0.0D+00 yielded  24722 shell pairs
 There are    126515 function pairs
 
 -------------------------------------------------------
 OpenMP Integral Computing Module                       
 Release: version 1.0, May 2013, Q-Chem Inc. Pittsburgh 
 -------------------------------------------------------
 Integral Job Info:
 Integral job number is                      11
 Integral operator is                         1
 short-range coefficients                     0
 long-range coefficients              100000000
 Omega coefficients                           0
 if combine SR and LR in K                    0
 Integral screening is                        0
 Integral computing path is                   2
 max size of driver memory is            800000
 size of driver memory is                 45569
 size of scratch memory is             14945700
 max col of scratch BK array                289
 max len of scratch array in speh3           22
 max len of scratch index in speh4            8
 max int batch size is                      520
 min int batch size is                       52
 fixed nKL is                                52
 max L of basis functions is                  1
 order of int derivative is                   0
 number of shells is                        223
 number of basis is                         502
 number of cartesian basis is               502
 number of contracted shell pairs         24722
 number of primitive shell pairs         142882
 maxK2 (contraction) of shell pair           36
 max number of K2 of shell pair               1
 max number of CS2 of shell pair           3868
 max number of PS2 of shell pair          16092
 mem total for path MDJ                  986726
 -------------------------------------------------------
 Smallest overlap matrix eigenvalue = 1.62E-03

 Scale SEOQF with 1.000000e-02/1.000000e-02/1.000000e-01

 Standard Electronic Orientation quadrupole field applied
 Nucleus-field energy     =     0.0000000309 hartrees
 Guess from superposition of atomic densities
 Warning:  Energy on first SCF cycle will be non-variational
 SAD guess density has 358.000001 electrons

 -----------------------------------------------------------------------
  General SCF calculation program by
  Eric Jon Sundstrom, Paul Horn, Yuezhi Mao, Dmitri Zuev, Alec White,
  David Stuck, Shaama M.S., Shane Yost, Joonho Lee, David Small,
  Daniel Levine, Susi Lehtola, Hugh Burton, Evgeny Epifanovsky
 -----------------------------------------------------------------------
 Exchange:     0.2000 Hartree-Fock + 0.0800 Slater + 0.7200 B88
 Correlation:  0.1900 VWN1RPA + 0.8100 LYP
 Using SG-1 standard quadrature grid
 using 8 threads for integral computing
 -------------------------------------------------------
 OpenMP Integral computing Module                
 Release: version 1.0, May 2013, Q-Chem Inc. Pittsburgh 
 -------------------------------------------------------
 -------------------------------------------------------
 OpenMP BLAS3 based DFT computing Module                
 Release: version 1.0, May 2013, Q-Chem Inc. Pittsburgh 
 -------------------------------------------------------

 Q-Chem fatal error occurred in module 0, line  103:

 Newton-Raphson did not converge in ShlRad

