
Running Job 1 of 1 GHSLG_malonylSNAC_b3lyp.in
qchem GHSLG_malonylSNAC_b3lyp.in_29596.0 /scr/c295_krishna/156877/qchem29596/ 1
/usr/software/qchem_511/exe/qcprog.exe_s GHSLG_malonylSNAC_b3lyp.in_29596.0 /scr/c295_krishna/156877/qchem29596/
Check license passed

                  Welcome to Q-Chem
     A Quantum Leap Into The Future Of Chemistry


 Q-Chem 5.1, Q-Chem, Inc., Pleasanton, CA (2018)

 Yihan Shao,  Zhengting Gan,  E. Epifanovsky,  A. T. B. Gilbert,  M. Wormit,  
 J. Kussmann,  A. W. Lange,  A. Behn,  Jia Deng,  Xintian Feng,  D. Ghosh,  
 M. Goldey,  P. R. Horn,  L. D. Jacobson,  I. Kaliman,  T. Kus,  A. Landau,  
 Jie Liu,  E. I. Proynov,  R. M. Richard,  R. P. Steele,  E. J. Sundstrom,  
 H. L. Woodcock III,  P. M. Zimmerman,  D. Zuev,  B. Albrecht,  E. Alguire,  
 S. A. Baeppler,  D. Barton,  Z. Benda,  Y. A. Bernard,  E. J. Berquist,  
 K. B. Bravaya,  H. Burton,  D. Casanova,  Chun-Min Chang,  Yunqing Chen,  
 A. Chien,  K. D. Closser,  M. P. Coons,  S. Coriani,  S. Dasgupta,  
 A. L. Dempwolff,  M. Diedenhofen,  Hainam Do,  R. G. Edgar,  Po-Tung Fang,  
 S. Faraji,  S. Fatehi,  Qingguo Feng,  K. D. Fenk,  J. Fosso-Tande,  
 Qinghui Ge,  A. Ghysels,  G. Gidofalvi,  J. Gomes,  J. Gonthier,  A. Gunina,  
 D. Hait,  M. W. D. Hanson-Heine,  P. H. P. Harbach,  A. W. Hauser,  
 J. E. Herr,  E. G. Hohenstein,  Z. C. Holden,  Kerwin Hui,  B. C. Huynh,  
 T.-C. Jagau,  Hyunjun Ji,  B. Kaduk,  K. Khistyaev,  Jaehoon Kim,  
 P. Klunzinger,  K. Koh,  D. Kosenkov,  L. Koulias,  T. Kowalczyk,  
 C. M. Krauter,  A. Kunitsa,  Ka Un Lao,  A. Laurent,  K. V. Lawler,  
 Joonho Lee,  D. Lefrancois,  S. Lehtola,  D. S. Levine,  Yi-Pei Li,  
 You-Sheng Lin,  Fenglai Liu,  E. Livshits,  A. Luenser,  P. Manohar,  
 E. Mansoor,  S. F. Manzer,  Shan-Ping Mao,  Yuezhi Mao,  N. Mardirossian,  
 A. V. Marenich,  T. Markovich,  L. A. Martinez-Martinez,  S. A. Maurer,  
 N. J. Mayhall,  S. C. McKenzie,  J.-M. Mewes,  A. F. Morrison,  
 J. W. Mullinax,  K. Nanda,  T. S. Nguyen-Beck,  R. Olivares-Amaya,  
 J. A. Parkhill,  T. M. Perrine,  F. Plasser,  P. Pokhilko,  S. Prager,  
 A. Prociuk,  E. Ramos,  D. R. Rehn,  F. Rob,  M. Schneider,  N. Sergueev,  
 S. M. Sharada,  S. Sharma,  D. W. Small,  T. Stauch,  T. Stein,  
 Yu-Chuan Su,  A. J. W. Thom,  A. Tkatchenko,  T. Tsuchimochi,  N. M. Tubman,  
 L. Vogt,  M. L. Vidal,  O. Vydrov,  M. A. Watson,  J. Wenzel,  
 M. de Wergifosse,  T. A. Wesolowski,  A. White,  J. Witte,  A. Yamada,  
 Jun Yang,  K. Yao,  S. Yeganeh,  S. R. Yost,  Zhi-Qiang You,  A. Zech,  
 Igor Ying Zhang,  Xing Zhang,  Yan Zhao,  Ying Zhu,  B. R. Brooks,  
 G. K. L. Chan,  C. J. Cramer,  M. S. Gordon,  W. J. Hehre,  A. Klamt,  
 M. W. Schmidt,  C. D. Sherrill,  D. G. Truhlar,  A. Aspuru-Guzik,  R. Baer,  
 A. T. Bell,  N. A. Besley,  Jeng-Da Chai,  A. E. DePrince, III,  
 R. A. DiStasio Jr.,  A. Dreuw,  B. D. Dunietz,  T. R. Furlani,  
 Chao-Ping Hsu,  Yousung Jung,  Jing Kong,  D. S. Lambrecht,  WanZhen Liang,  
 C. Ochsenfeld,  V. A. Rassolov,  L. V. Slipchenko,  J. E. Subotnik,  
 T. Van Voorhis,  J. M. Herbert,  A. I. Krylov,  P. M. W. Gill,  M. Head-Gordon

 Contributors to earlier versions of Q-Chem not listed above: 
 R. D. Adamson,  B. Austin,  J. Baker,  G. J. O. Beran,  K. Brandhorst,  
 S. T. Brown,  E. F. C. Byrd,  A. K. Chakraborty,  C.-L. Cheng,  
 Siu Hung Chien,  D. M. Chipman,  D. L. Crittenden,  H. Dachsel,  
 R. J. Doerksen,  A. D. Dutoi,  L. Fusti-Molnar,  W. A. Goddard III,  
 A. Golubeva-Zadorozhnaya,  S. R. Gwaltney,  G. Hawkins,  A. Heyden,  
 S. Hirata,  G. Kedziora,  F. J. Keil,  C. Kelley,  Jihan Kim,  R. A. King,  
 R. Z. Khaliullin,  P. P. Korambath,  W. Kurlancheek,  A. M. Lee,  M. S. Lee,  
 S. V. Levchenko,  Ching Yeh Lin,  D. Liotard,  R. C. Lochan,  I. Lotan,  
 P. E. Maslen,  N. Nair,  D. P. O'Neill,  D. Neuhauser,  E. Neuscamman,  
 C. M. Oana,  R. Olson,  B. Peters,  R. Peverati,  P. A. Pieniazek,  
 Y. M. Rhee,  J. Ritchie,  M. A. Rohrdanz,  E. Rosta,  N. J. Russ,  
 H. F. Schaefer III,  N. E. Schultz,  N. Shenvi,  A. C. Simmonett,  A. Sodt,  
 D. Stuck,  K. S. Thanthiriwatte,  V. Vanovschi,  Tao Wang,  A. Warshel,  
 C. F. Williams,  Q. Wu,  X. Xu,  W. Zhang

 Please cite Q-Chem as follows:
 Y. Shao et al., Mol. Phys. 113, 184-215 (2015)
 DOI: 10.1080/00268976.2014.952696

 Q-Chem 5.1.1 for Intel X86 EM64T Linux

 Parts of Q-Chem use Armadillo 8.300.2 (Tropical Shenanigans).
 http://arma.sourceforge.net/

 Q-Chem begins on Tue Nov 27 10:57:30 2018  

Host: cub-0-4.local
0

     Scratch files written to /scr/c295_krishna/156877/qchem29596//
 Aug318 |scratch|qcdevops|jenkins|workspace|build_RNUM -1
Processing $rem in /usr/software/qchem_511/config/preferences.
 MEM_TOTAL  2000 
Input Ideriv = 2
Curr. Ideriv = -1
Max.  Ideriv = 2

 Q-Chem warning in module libgen/rem_setup.C, line 1963:

 Setting Thresh to 1e-14


Checking the input file for inconsistencies... 	...done.

--------------------------------------------------------------
User input:
--------------------------------------------------------------
$molecule
0 1
N   -4.8386990    3.6051490    0.2397290
C   -3.4287900    3.9266300    0.0327500
H   -5.4132600    4.4212500   -0.0721420
H   -5.0123970    3.4685140    1.2624020
C   -2.5319670    2.7743300    0.4139710
H   -3.1579460    4.8197520    0.6382030
H   -3.2649390    4.1609950   -1.0410070
N   -1.1809830    2.9092610    0.2896660
C   -0.2254690    1.8577560    0.6355710
H   -0.8226020    3.8214510   -0.0355710
C    1.1671480    2.4968890    0.6831370
N    2.1665230    2.2220190   -0.2131460
C    3.4386050    2.9462390   -0.2291280
H    2.0189300    1.5278990   -0.9572600
C    4.6208170    2.0028100   -0.0580670
N    5.8796730    2.5034700    0.1155340
C    7.0709850    1.6701120    0.2659470
H    5.9958120    3.5277580    0.1220150
C    8.2948610    2.5647870    0.2198790
N    9.1995020    2.4432040   -0.7936680
C   10.3833900    3.2792240   -0.9158970
H    9.0401180    1.7343370   -1.5258880
C   11.6444550    2.4532850   -0.9157260
H   10.4524810    4.0167380   -0.0881940
H   10.3257810    3.8403340   -1.8724690
O   12.8449600    3.0564190   -1.0408220
H   12.9213540    4.0167690   -1.1306890
O   -3.0187010    1.7381100    0.8463670
O    1.3428950    3.3547870    1.5379120
O    4.4394830    0.7950170   -0.0813130
O    8.4484430    3.4084290    1.0933500
O   11.5980330    1.2377150   -0.8055650
C   -0.3900910    0.6468150   -0.3262020
H   -0.4606550    1.5056580    1.6657880
C    0.1917210   -0.6328580    0.2256190
H   -0.0091110    0.8806720   -1.3405490
H   -1.4675960    0.4317090   -0.4641000
C    1.4969310   -0.9085900    0.5765260
N    1.5751720   -2.1752940    1.0293180
H    2.3383330   -0.2478380    0.5225340
C    0.3172300   -2.6505030    0.9475500
N   -0.5411540   -1.7353410    0.4652510
H    0.0317850   -3.6528020    1.2383200
H   -1.5660300   -1.8633260    0.3108680
C    3.5216930    3.7206930   -1.5579780
H    3.4780160    3.6776980    0.6068350
O    4.6648960    4.5293710   -1.6229500
H    2.6344910    4.3821620   -1.6518270
H    3.4800220    3.0130510   -2.4201140
H    5.3161560    4.0729530   -2.2171970
C    7.0049630    0.8541580    1.5926810
H    7.1014870    0.9731930   -0.5985500
C    8.1222520   -0.1904930    1.8700340
H    6.0597280    0.2761560    1.5993960
H    6.9477240    1.5573540    2.4525660
C    9.4979640    0.4233210    2.1598430
H    9.9332880    0.9108720    1.2706900
H   10.2056970   -0.3737030    2.4732530
H    9.4226650    1.1608370    2.9867650
C    8.2219160   -1.2386290    0.7539660
H    7.8207620   -0.7199170    2.8018490
H    8.5595590   -0.7776860   -0.1977080
H    7.2357780   -1.7238560    0.5931490
H    8.9533190   -2.0264080    1.0343750
C    6.0401040    8.3566990   -1.7564260
C    6.7848490    7.1383010   -2.2209690
C    8.2380420    7.4522960   -2.4502030
H    6.3466240    6.7616950   -3.1697320
H    6.6802360    6.3454160   -1.4507570
O    9.2031360    6.8177350   -1.7506990
H    8.9949840    6.1502820   -1.0820810
O    6.3533430    8.9040990   -0.7107770
O    8.5545580    8.2852840   -3.2849650
C   -1.2369350    6.4489690   -1.6654000
C   -0.2568320    7.4275890   -2.2392230
H   -0.9832380    5.4246970   -2.0099230
H   -2.2718230    6.6888170   -1.9906910
H   -1.1938980    6.4834870   -0.5566340
N    1.0675430    7.3061430   -1.9574170
C    2.0542240    8.2267890   -2.4941420
H    1.3729190    6.5339340   -1.3442840
C    3.4595500    7.8545550   -2.0234030
H    1.8172540    9.2596780   -2.1564250
H    2.0224800    8.1920540   -3.6054730
S    4.6768240    9.0177530   -2.7221450
H    3.6935560    6.8296000   -2.3776410
H    3.4846040    7.9069480   -0.9130850
O   -0.6602640    8.3295560   -2.9602310
$end

$rem
BASIS  =  6-31G
JOB_TYPE  =  Optimization
METHOD  =  B3LYP
SCF_CONVERGENCE  =  500
SCF_ALGORITHM = DIIS_GDM
$end
--------------------------------------------------------------
 ----------------------------------------------------------------
             Standard Nuclear Orientation (Angstroms)
    I     Atom           X                Y                Z
 ----------------------------------------------------------------
    1      N       8.9105204077     0.5574742110    -0.5460242847
    2      C       7.4725266680     0.8091722048    -0.4925841065
    3      H       9.4082472914     1.4768211264    -0.5242549517
    4      H       9.1435501537     0.0931615975    -1.4542154088
    5      C       6.6816251634    -0.4758822513    -0.4696474768
    6      H       7.1674079789     1.4134297540    -1.3754046512
    7      H       7.2396974137     1.3832764168     0.4298708195
    8      N       5.3199444089    -0.4220417482    -0.4279030277
    9      C       4.4615182743    -1.6056918685    -0.4079781052
   10      H       4.8806786865     0.5123106114    -0.4462860786
   11      C       3.0301080405    -1.1428725172    -0.7029333822
   12      N       2.0106963030    -1.1771680837     0.2120806325
   13      C       0.6900577331    -0.6026731529    -0.0502397625
   14      H       2.1717773155    -1.5581675591     1.1534542141
   15      C      -0.4106130240    -1.6444863155     0.0915155734
   16      N      -1.6925363842    -1.3430814074    -0.2708982114
   17      C      -2.8112883116    -2.2756299742    -0.1480926594
   18      H      -1.8824070196    -0.3972095752    -0.6341774380
   19      C      -4.0977764305    -1.5272721302    -0.4402346404
   20      N      -5.0397078916    -1.3698510075     0.5336334198
   21      C      -6.2858243515    -0.6467826952     0.3340685194
   22      H      -4.8652264859    -1.7677246589     1.4692052280
   23      C      -7.4819551124    -1.5267210627     0.5937603898
   24      H      -6.3677697080    -0.2472272024    -0.6990980158
   25      H      -6.3160737786     0.2115223745     1.0380504791
   26      O      -8.7278272266    -1.0218951768     0.4772040254
   27      H      -8.8781722556    -0.0993398613     0.2272594204
   28      O       7.2630161073    -1.5521170832    -0.5061349123
   29      O       2.8344871328    -0.6491085414    -1.8054060049
   30      O      -0.1432728673    -2.7506738488     0.5354352832
   31      O      -4.2693656197    -1.0513762556    -1.5548426923
   32      O      -7.3419111660    -2.6975010108     0.9124497045
   33      C       4.6664958066    -2.3938384798     0.9168973388
   34      H       4.7718391126    -2.2688761407    -1.2473350744
   35      C       4.2070075883    -3.8297986120     0.8305047327
   36      H       4.2203188483    -1.8591104357     1.7792932653
   37      H       5.7487459854    -2.4558822863     1.1431462971
   38      C       2.9440551130    -4.3193895998     0.5697582809
   39      N       2.9804079144    -5.6663136346     0.5822238883
   40      H       2.0551935354    -3.7545175745     0.3740279610
   41      C       4.2640652738    -5.9755397672     0.8496760472
   42      N       5.0289746491    -4.8808249920     1.0028756289
   43      H       4.6355421538    -6.9885400932     0.9300787425
   44      H       6.0516551999    -4.8602060505     1.2133143054
   45      C       0.4859124094     0.5710713884     0.9260662218
   46      H       0.6385228277    -0.2090905176    -1.0884384409
   47      O      -0.7148842165     1.2523631906     0.6831186739
   48      H       1.3169957019     1.2975254706     0.8034232893
   49      H       0.5366851585     0.2089477456     1.9806091324
   50      H      -1.3595317880     0.9741611773     1.3849873395
   51      C      -2.6212285821    -3.4889149192    -1.1083946342
   52      H      -2.8333061244    -2.6330603527     0.9034491933
   53      C      -3.6446611453    -4.6563831250    -1.0299160712
   54      H      -1.6372665438    -3.9513090661    -0.8948273882
   55      H      -2.5732590142    -3.1217523840    -2.1572290940
   56      C      -5.0455314524    -4.2990209994    -1.5429414935
   57      H      -5.5581655833    -3.5746553853    -0.8869638072
   58      H      -5.6772296919    -5.2123962128    -1.5755319468
   59      H      -4.9836811491    -3.8868981182    -2.5723729165
   60      C      -3.7223459858    -5.2617665601     0.3777791124
   61      H      -3.2602118467    -5.4459651577    -1.7141851240
   62      H      -4.1388006445    -4.5324899397     1.1036412034
   63      H      -2.7125871646    -5.5763555296     0.7171850749
   64      H      -4.3799109767    -6.1571743637     0.3724446361
   65      C      -2.3696913093     4.7606920874    -0.5459843906
   66      C      -3.0456959727     3.7173118732     0.2962236740
   67      C      -4.5273520508     3.9659672251     0.3722287012
   68      H      -2.6282129201     3.7283292603     1.3255977449
   69      H      -2.8461151826     2.7200692234    -0.1493227700
   70      O      -5.4083356683     3.0499874076    -0.0840922135
   71      H      -5.1197105238     2.2137762441    -0.4756496273
   72      O      -2.6703485125     4.8867755835    -1.7227832096
   73      O      -4.9440965322     5.0048446682     0.8600162355
   74      C       5.0225325332     3.5649346155     0.1807939962
   75      C       3.9469381864     4.5938629291     0.3596099826
   76      H       4.8274417826     2.7037062570     0.8534132858
   77      H       6.0200676781     3.9891420461     0.4243225590
   78      H       5.0314284364     3.2126630653    -0.8719316738
   79      N       2.6502906240     4.2706773185     0.1098319749
   80      C       1.5741760996     5.2320797313     0.2737987693
   81      H       2.4322677628     3.3118156890    -0.2040847724
   82      C       0.2243778307     4.6025410167    -0.0679908783
   83      H       1.7516443693     6.1022807959    -0.3957700172
   84      H       1.5539208964     5.5840676837     1.3287703336
   85      S      -1.1070137853     5.8268140907     0.1591165104
   86      H       0.0484763551     3.7456882399     0.6143859315
   87      H       0.2499634251     4.2679858807    -1.1279894769
   88      O       4.2479214101     5.7194927559     0.7317940443
 ----------------------------------------------------------------
 Molecular Point Group                 C1    NOp =  1
 Largest Abelian Subgroup              C1    NOp =  1
 Nuclear Repulsion Energy =  6077.2212241038 hartrees
 There are      179 alpha and      179 beta electrons
 Requested basis set is 6-31G
 There are 223 shells and 502 basis functions

 Total QAlloc Memory Limit   2000 MB
 Mega-Array Size       188 MB
 MEM_STATIC part       192 MB
 A cutoff of  0.0D+00 yielded  24724 shell pairs
 There are    126535 function pairs
 
 -------------------------------------------------------
 OpenMP Integral Computing Module                       
 Release: version 1.0, May 2013, Q-Chem Inc. Pittsburgh 
 -------------------------------------------------------
 Integral Job Info:
 Integral job number is                      11
 Integral operator is                         1
 short-range coefficients                     0
 long-range coefficients              100000000
 Omega coefficients                           0
 if combine SR and LR in K                    0
 Integral screening is                        0
 Integral computing path is                   2
 max size of driver memory is            800000
 size of driver memory is                 45569
 size of scratch memory is             14945700
 max col of scratch BK array                289
 max len of scratch array in speh3           22
 max len of scratch index in speh4            8
 max int batch size is                      520
 min int batch size is                       52
 fixed nKL is                                52
 max L of basis functions is                  1
 order of int derivative is                   0
 number of shells is                        223
 number of basis is                         502
 number of cartesian basis is               502
 number of contracted shell pairs         24724
 number of primitive shell pairs         143291
 maxK2 (contraction) of shell pair           36
 max number of K2 of shell pair               1
 max number of CS2 of shell pair           3868
 max number of PS2 of shell pair          15894
 mem total for path MDJ                  986726
 -------------------------------------------------------
 Smallest overlap matrix eigenvalue = 1.61E-03

 Scale SEOQF with 1.000000e-02/1.000000e-02/1.000000e-01

 Standard Electronic Orientation quadrupole field applied
 Nucleus-field energy     =     0.0000000321 hartrees
 Guess from superposition of atomic densities
 Warning:  Energy on first SCF cycle will be non-variational
 SAD guess density has 358.000001 electrons

 -----------------------------------------------------------------------
  General SCF calculation program by
  Eric Jon Sundstrom, Paul Horn, Yuezhi Mao, Dmitri Zuev, Alec White,
  David Stuck, Shaama M.S., Shane Yost, Joonho Lee, David Small,
  Daniel Levine, Susi Lehtola, Hugh Burton, Evgeny Epifanovsky
 -----------------------------------------------------------------------
 Exchange:     0.2000 Hartree-Fock + 0.0800 Slater + 0.7200 B88
 Correlation:  0.1900 VWN1RPA + 0.8100 LYP
 Using SG-1 standard quadrature grid
 using 8 threads for integral computing
 -------------------------------------------------------
 OpenMP Integral computing Module                
 Release: version 1.0, May 2013, Q-Chem Inc. Pittsburgh 
 -------------------------------------------------------
 -------------------------------------------------------
 OpenMP BLAS3 based DFT computing Module                
 Release: version 1.0, May 2013, Q-Chem Inc. Pittsburgh 
 -------------------------------------------------------

 Q-Chem fatal error occurred in module 0, line  103:

 Newton-Raphson did not converge in ShlRad

