
Running Job 1 of 1 GHSLG_malonylSNAC_b3lyp.in
qchem GHSLG_malonylSNAC_b3lyp.in_22345.0 /scr/c295_krishna/156593/qchem22345/ 1
/usr/software/qchem_511/exe/qcprog.exe_s GHSLG_malonylSNAC_b3lyp.in_22345.0 /scr/c295_krishna/156593/qchem22345/
Check license passed

                  Welcome to Q-Chem
     A Quantum Leap Into The Future Of Chemistry


 Q-Chem 5.1, Q-Chem, Inc., Pleasanton, CA (2018)

 Yihan Shao,  Zhengting Gan,  E. Epifanovsky,  A. T. B. Gilbert,  M. Wormit,  
 J. Kussmann,  A. W. Lange,  A. Behn,  Jia Deng,  Xintian Feng,  D. Ghosh,  
 M. Goldey,  P. R. Horn,  L. D. Jacobson,  I. Kaliman,  T. Kus,  A. Landau,  
 Jie Liu,  E. I. Proynov,  R. M. Richard,  R. P. Steele,  E. J. Sundstrom,  
 H. L. Woodcock III,  P. M. Zimmerman,  D. Zuev,  B. Albrecht,  E. Alguire,  
 S. A. Baeppler,  D. Barton,  Z. Benda,  Y. A. Bernard,  E. J. Berquist,  
 K. B. Bravaya,  H. Burton,  D. Casanova,  Chun-Min Chang,  Yunqing Chen,  
 A. Chien,  K. D. Closser,  M. P. Coons,  S. Coriani,  S. Dasgupta,  
 A. L. Dempwolff,  M. Diedenhofen,  Hainam Do,  R. G. Edgar,  Po-Tung Fang,  
 S. Faraji,  S. Fatehi,  Qingguo Feng,  K. D. Fenk,  J. Fosso-Tande,  
 Qinghui Ge,  A. Ghysels,  G. Gidofalvi,  J. Gomes,  J. Gonthier,  A. Gunina,  
 D. Hait,  M. W. D. Hanson-Heine,  P. H. P. Harbach,  A. W. Hauser,  
 J. E. Herr,  E. G. Hohenstein,  Z. C. Holden,  Kerwin Hui,  B. C. Huynh,  
 T.-C. Jagau,  Hyunjun Ji,  B. Kaduk,  K. Khistyaev,  Jaehoon Kim,  
 P. Klunzinger,  K. Koh,  D. Kosenkov,  L. Koulias,  T. Kowalczyk,  
 C. M. Krauter,  A. Kunitsa,  Ka Un Lao,  A. Laurent,  K. V. Lawler,  
 Joonho Lee,  D. Lefrancois,  S. Lehtola,  D. S. Levine,  Yi-Pei Li,  
 You-Sheng Lin,  Fenglai Liu,  E. Livshits,  A. Luenser,  P. Manohar,  
 E. Mansoor,  S. F. Manzer,  Shan-Ping Mao,  Yuezhi Mao,  N. Mardirossian,  
 A. V. Marenich,  T. Markovich,  L. A. Martinez-Martinez,  S. A. Maurer,  
 N. J. Mayhall,  S. C. McKenzie,  J.-M. Mewes,  A. F. Morrison,  
 J. W. Mullinax,  K. Nanda,  T. S. Nguyen-Beck,  R. Olivares-Amaya,  
 J. A. Parkhill,  T. M. Perrine,  F. Plasser,  P. Pokhilko,  S. Prager,  
 A. Prociuk,  E. Ramos,  D. R. Rehn,  F. Rob,  M. Schneider,  N. Sergueev,  
 S. M. Sharada,  S. Sharma,  D. W. Small,  T. Stauch,  T. Stein,  
 Yu-Chuan Su,  A. J. W. Thom,  A. Tkatchenko,  T. Tsuchimochi,  N. M. Tubman,  
 L. Vogt,  M. L. Vidal,  O. Vydrov,  M. A. Watson,  J. Wenzel,  
 M. de Wergifosse,  T. A. Wesolowski,  A. White,  J. Witte,  A. Yamada,  
 Jun Yang,  K. Yao,  S. Yeganeh,  S. R. Yost,  Zhi-Qiang You,  A. Zech,  
 Igor Ying Zhang,  Xing Zhang,  Yan Zhao,  Ying Zhu,  B. R. Brooks,  
 G. K. L. Chan,  C. J. Cramer,  M. S. Gordon,  W. J. Hehre,  A. Klamt,  
 M. W. Schmidt,  C. D. Sherrill,  D. G. Truhlar,  A. Aspuru-Guzik,  R. Baer,  
 A. T. Bell,  N. A. Besley,  Jeng-Da Chai,  A. E. DePrince, III,  
 R. A. DiStasio Jr.,  A. Dreuw,  B. D. Dunietz,  T. R. Furlani,  
 Chao-Ping Hsu,  Yousung Jung,  Jing Kong,  D. S. Lambrecht,  WanZhen Liang,  
 C. Ochsenfeld,  V. A. Rassolov,  L. V. Slipchenko,  J. E. Subotnik,  
 T. Van Voorhis,  J. M. Herbert,  A. I. Krylov,  P. M. W. Gill,  M. Head-Gordon

 Contributors to earlier versions of Q-Chem not listed above: 
 R. D. Adamson,  B. Austin,  J. Baker,  G. J. O. Beran,  K. Brandhorst,  
 S. T. Brown,  E. F. C. Byrd,  A. K. Chakraborty,  C.-L. Cheng,  
 Siu Hung Chien,  D. M. Chipman,  D. L. Crittenden,  H. Dachsel,  
 R. J. Doerksen,  A. D. Dutoi,  L. Fusti-Molnar,  W. A. Goddard III,  
 A. Golubeva-Zadorozhnaya,  S. R. Gwaltney,  G. Hawkins,  A. Heyden,  
 S. Hirata,  G. Kedziora,  F. J. Keil,  C. Kelley,  Jihan Kim,  R. A. King,  
 R. Z. Khaliullin,  P. P. Korambath,  W. Kurlancheek,  A. M. Lee,  M. S. Lee,  
 S. V. Levchenko,  Ching Yeh Lin,  D. Liotard,  R. C. Lochan,  I. Lotan,  
 P. E. Maslen,  N. Nair,  D. P. O'Neill,  D. Neuhauser,  E. Neuscamman,  
 C. M. Oana,  R. Olson,  B. Peters,  R. Peverati,  P. A. Pieniazek,  
 Y. M. Rhee,  J. Ritchie,  M. A. Rohrdanz,  E. Rosta,  N. J. Russ,  
 H. F. Schaefer III,  N. E. Schultz,  N. Shenvi,  A. C. Simmonett,  A. Sodt,  
 D. Stuck,  K. S. Thanthiriwatte,  V. Vanovschi,  Tao Wang,  A. Warshel,  
 C. F. Williams,  Q. Wu,  X. Xu,  W. Zhang

 Please cite Q-Chem as follows:
 Y. Shao et al., Mol. Phys. 113, 184-215 (2015)
 DOI: 10.1080/00268976.2014.952696

 Q-Chem 5.1.1 for Intel X86 EM64T Linux

 Parts of Q-Chem use Armadillo 8.300.2 (Tropical Shenanigans).
 http://arma.sourceforge.net/

 Q-Chem begins on Sat Nov 24 22:17:45 2018  

Host: cub-0-30.local
0

     Scratch files written to /scr/c295_krishna/156593/qchem22345//
 Aug318 |scratch|qcdevops|jenkins|workspace|build_RNUM -1
Processing $rem in /usr/software/qchem_511/config/preferences.
 MEM_TOTAL  2000 
Input Ideriv = 2
Curr. Ideriv = -1
Max.  Ideriv = 2

Checking the input file for inconsistencies... 	...done.

--------------------------------------------------------------
User input:
--------------------------------------------------------------
$molecule
0 1
N   -4.8386990    3.6051490    0.2397290
C   -3.4287900    3.9266300    0.0327500
H   -5.4132600    4.4212500   -0.0721420
H   -5.0123970    3.4685140    1.2624020
C   -2.5319670    2.7743300    0.4139710
H   -3.1579460    4.8197520    0.6382030
H   -3.2649390    4.1609950   -1.0410070
N   -1.1809830    2.9092610    0.2896660
C   -0.2254690    1.8577560    0.6355710
H   -0.8226020    3.8214510   -0.0355710
C    1.1671480    2.4968890    0.6831370
N    2.1665230    2.2220190   -0.2131460
C    3.4386050    2.9462390   -0.2291280
H    2.0189300    1.5278990   -0.9572600
C    4.6208170    2.0028100   -0.0580670
N    5.8796730    2.5034700    0.1155340
C    7.0709850    1.6701120    0.2659470
H    5.9958120    3.5277580    0.1220150
C    8.2948610    2.5647870    0.2198790
N    9.1995020    2.4432040   -0.7936680
C   10.3833900    3.2792240   -0.9158970
H    9.0401180    1.7343370   -1.5258880
C   11.6444550    2.4532850   -0.9157260
H   10.4524810    4.0167380   -0.0881940
H   10.3257810    3.8403340   -1.8724690
O   12.8449600    3.0564190   -1.0408220
H   12.9213540    4.0167690   -1.1306890
O   -3.0187010    1.7381100    0.8463670
O    1.3428950    3.3547870    1.5379120
O    4.4394830    0.7950170   -0.0813130
O    8.4484430    3.4084290    1.0933500
O   11.5980330    1.2377150   -0.8055650
C   -0.3900910    0.6468150   -0.3262020
H   -0.4606550    1.5056580    1.6657880
C    0.1917210   -0.6328580    0.2256190
H   -0.0091110    0.8806720   -1.3405490
H   -1.4675960    0.4317090   -0.4641000
C    1.4969310   -0.9085900    0.5765260
N    1.5751720   -2.1752940    1.0293180
H    2.3383330   -0.2478380    0.5225340
C    0.3172300   -2.6505030    0.9475500
N   -0.5411540   -1.7353410    0.4652510
H    0.0317850   -3.6528020    1.2383200
H   -1.5660300   -1.8633260    0.3108680
C    3.5216930    3.7206930   -1.5579780
H    3.4780160    3.6776980    0.6068350
O    4.6648960    4.5293710   -1.6229500
H    2.6344910    4.3821620   -1.6518270
H    3.4800220    3.0130510   -2.4201140
H    5.3161560    4.0729530   -2.2171970
C    7.0049630    0.8541580    1.5926810
H    7.1014870    0.9731930   -0.5985500
C    8.1222520   -0.1904930    1.8700340
H    6.0597280    0.2761560    1.5993960
H    6.9477240    1.5573540    2.4525660
C    9.4979640    0.4233210    2.1598430
H    9.9332880    0.9108720    1.2706900
H   10.2056970   -0.3737030    2.4732530
H    9.4226650    1.1608370    2.9867650
C    8.2219160   -1.2386290    0.7539660
H    7.8207620   -0.7199170    2.8018490
H    8.5595590   -0.7776860   -0.1977080
H    7.2357780   -1.7238560    0.5931490
H    8.9533190   -2.0264080    1.0343750
C    6.0401040    8.3566990   -1.7564260
C    6.7848490    7.1383010   -2.2209690
C    8.2380420    7.4522960   -2.4502030
H    6.3466240    6.7616950   -3.1697320
H    6.6802360    6.3454160   -1.4507570
O    9.2031360    6.8177350   -1.7506990
H    8.9949840    6.1502820   -1.0820810
O    6.3533430    8.9040990   -0.7107770
O    8.5545580    8.2852840   -3.2849650
C   -1.2369350    6.4489690   -1.6654000
C   -0.2568320    7.4275890   -2.2392230
H   -0.9832380    5.4246970   -2.0099230
H   -2.2718230    6.6888170   -1.9906910
H   -1.1938980    6.4834870   -0.5566340
N    1.0675430    7.3061430   -1.9574170
C    2.0542240    8.2267890   -2.4941420
H    1.3729190    6.5339340   -1.3442840
C    3.4595500    7.8545550   -2.0234030
H    1.8172540    9.2596780   -2.1564250
H    2.0224800    8.1920540   -3.6054730
S    4.6768240    9.0177530   -2.7221450
H    3.6935560    6.8296000   -2.3776410
H    3.4846040    7.9069480   -0.9130850
O   -0.6602640    8.3295560   -2.9602310
$end

$rem
BASIS  =  6-31G
JOB_TYPE  =  Optimization
METHOD  =  B3LYP
SCF_CONVERGENCE  =  8
$end
--------------------------------------------------------------
 ----------------------------------------------------------------
             Standard Nuclear Orientation (Angstroms)
    I     Atom           X                Y                Z
 ----------------------------------------------------------------
    1      N       8.9105204077     0.5574742110    -0.5460242847
    2      C       7.4725266680     0.8091722048    -0.4925841065
    3      H       9.4082472914     1.4768211264    -0.5242549517
    4      H       9.1435501537     0.0931615975    -1.4542154088
    5      C       6.6816251634    -0.4758822513    -0.4696474768
    6      H       7.1674079789     1.4134297540    -1.3754046512
    7      H       7.2396974137     1.3832764168     0.4298708195
    8      N       5.3199444089    -0.4220417482    -0.4279030277
    9      C       4.4615182743    -1.6056918685    -0.4079781052
   10      H       4.8806786865     0.5123106114    -0.4462860786
   11      C       3.0301080405    -1.1428725172    -0.7029333822
   12      N       2.0106963030    -1.1771680837     0.2120806325
   13      C       0.6900577331    -0.6026731529    -0.0502397625
   14      H       2.1717773155    -1.5581675591     1.1534542141
   15      C      -0.4106130240    -1.6444863155     0.0915155734
   16      N      -1.6925363842    -1.3430814074    -0.2708982114
   17      C      -2.8112883116    -2.2756299742    -0.1480926594
   18      H      -1.8824070196    -0.3972095752    -0.6341774380
   19      C      -4.0977764305    -1.5272721302    -0.4402346404
   20      N      -5.0397078916    -1.3698510075     0.5336334198
   21      C      -6.2858243515    -0.6467826952     0.3340685194
   22      H      -4.8652264859    -1.7677246589     1.4692052280
   23      C      -7.4819551124    -1.5267210627     0.5937603898
   24      H      -6.3677697080    -0.2472272024    -0.6990980158
   25      H      -6.3160737786     0.2115223745     1.0380504791
   26      O      -8.7278272266    -1.0218951768     0.4772040254
   27      H      -8.8781722556    -0.0993398613     0.2272594204
   28      O       7.2630161073    -1.5521170832    -0.5061349123
   29      O       2.8344871328    -0.6491085414    -1.8054060049
   30      O      -0.1432728673    -2.7506738488     0.5354352832
   31      O      -4.2693656197    -1.0513762556    -1.5548426923
   32      O      -7.3419111660    -2.6975010108     0.9124497045
   33      C       4.6664958066    -2.3938384798     0.9168973388
   34      H       4.7718391126    -2.2688761407    -1.2473350744
   35      C       4.2070075883    -3.8297986120     0.8305047327
   36      H       4.2203188483    -1.8591104357     1.7792932653
   37      H       5.7487459854    -2.4558822863     1.1431462971
   38      C       2.9440551130    -4.3193895998     0.5697582809
   39      N       2.9804079144    -5.6663136346     0.5822238883
   40      H       2.0551935354    -3.7545175745     0.3740279610
   41      C       4.2640652738    -5.9755397672     0.8496760472
   42      N       5.0289746491    -4.8808249920     1.0028756289
   43      H       4.6355421538    -6.9885400932     0.9300787425
   44      H       6.0516551999    -4.8602060505     1.2133143054
   45      C       0.4859124094     0.5710713884     0.9260662218
   46      H       0.6385228277    -0.2090905176    -1.0884384409
   47      O      -0.7148842165     1.2523631906     0.6831186739
   48      H       1.3169957019     1.2975254706     0.8034232893
   49      H       0.5366851585     0.2089477456     1.9806091324
   50      H      -1.3595317880     0.9741611773     1.3849873395
   51      C      -2.6212285821    -3.4889149192    -1.1083946342
   52      H      -2.8333061244    -2.6330603527     0.9034491933
   53      C      -3.6446611453    -4.6563831250    -1.0299160712
   54      H      -1.6372665438    -3.9513090661    -0.8948273882
   55      H      -2.5732590142    -3.1217523840    -2.1572290940
   56      C      -5.0455314524    -4.2990209994    -1.5429414935
   57      H      -5.5581655833    -3.5746553853    -0.8869638072
   58      H      -5.6772296919    -5.2123962128    -1.5755319468
   59      H      -4.9836811491    -3.8868981182    -2.5723729165
   60      C      -3.7223459858    -5.2617665601     0.3777791124
   61      H      -3.2602118467    -5.4459651577    -1.7141851240
   62      H      -4.1388006445    -4.5324899397     1.1036412034
   63      H      -2.7125871646    -5.5763555296     0.7171850749
   64      H      -4.3799109767    -6.1571743637     0.3724446361
   65      C      -2.3696913093     4.7606920874    -0.5459843906
   66      C      -3.0456959727     3.7173118732     0.2962236740
   67      C      -4.5273520508     3.9659672251     0.3722287012
   68      H      -2.6282129201     3.7283292603     1.3255977449
   69      H      -2.8461151826     2.7200692234    -0.1493227700
   70      O      -5.4083356683     3.0499874076    -0.0840922135
   71      H      -5.1197105238     2.2137762441    -0.4756496273
   72      O      -2.6703485125     4.8867755835    -1.7227832096
   73      O      -4.9440965322     5.0048446682     0.8600162355
   74      C       5.0225325332     3.5649346155     0.1807939962
   75      C       3.9469381864     4.5938629291     0.3596099826
   76      H       4.8274417826     2.7037062570     0.8534132858
   77      H       6.0200676781     3.9891420461     0.4243225590
   78      H       5.0314284364     3.2126630653    -0.8719316738
   79      N       2.6502906240     4.2706773185     0.1098319749
   80      C       1.5741760996     5.2320797313     0.2737987693
   81      H       2.4322677628     3.3118156890    -0.2040847724
   82      C       0.2243778307     4.6025410167    -0.0679908783
   83      H       1.7516443693     6.1022807959    -0.3957700172
   84      H       1.5539208964     5.5840676837     1.3287703336
   85      S      -1.1070137853     5.8268140907     0.1591165104
   86      H       0.0484763551     3.7456882399     0.6143859315
   87      H       0.2499634251     4.2679858807    -1.1279894769
   88      O       4.2479214101     5.7194927559     0.7317940443
 ----------------------------------------------------------------
 Molecular Point Group                 C1    NOp =  1
 Largest Abelian Subgroup              C1    NOp =  1
 Nuclear Repulsion Energy =  6077.2212241038 hartrees
 There are      179 alpha and      179 beta electrons
 Requested basis set is 6-31G
 There are 223 shells and 502 basis functions

 Total QAlloc Memory Limit   2000 MB
 Mega-Array Size       188 MB
 MEM_STATIC part       192 MB
 A cutoff of  1.0D-11 yielded   9294 shell pairs
 There are     51408 function pairs
 
 -------------------------------------------------------
 OpenMP Integral Computing Module                       
 Release: version 1.0, May 2013, Q-Chem Inc. Pittsburgh 
 -------------------------------------------------------
 Integral Job Info:
 Integral job number is                      11
 Integral operator is                         1
 short-range coefficients                     0
 long-range coefficients              100000000
 Omega coefficients                           0
 if combine SR and LR in K                    0
 Integral screening is                        0
 Integral computing path is                   2
 max size of driver memory is            800000
 size of driver memory is                 45569
 size of scratch memory is             14945700
 max col of scratch BK array                289
 max len of scratch array in speh3           22
 max len of scratch index in speh4            8
 max int batch size is                      520
 min int batch size is                       52
 fixed nKL is                                52
 max L of basis functions is                  1
 order of int derivative is                   0
 number of shells is                        223
 number of basis is                         502
 number of cartesian basis is               502
 number of contracted shell pairs          9294
 number of primitive shell pairs          33130
 maxK2 (contraction) of shell pair           36
 max number of K2 of shell pair               1
 max number of CS2 of shell pair           1556
 max number of PS2 of shell pair           6114
 mem total for path MDJ                  692150
 -------------------------------------------------------
 Smallest overlap matrix eigenvalue = 1.61E-03

 Scale SEOQF with 1.000000e-02/1.000000e-02/1.000000e-01

 Standard Electronic Orientation quadrupole field applied
 Nucleus-field energy     =     0.0000000321 hartrees
 Guess from superposition of atomic densities
 Warning:  Energy on first SCF cycle will be non-variational
 SAD guess density has 358.000001 electrons

 -----------------------------------------------------------------------
  General SCF calculation program by
  Eric Jon Sundstrom, Paul Horn, Yuezhi Mao, Dmitri Zuev, Alec White,
  David Stuck, Shaama M.S., Shane Yost, Joonho Lee, David Small,
  Daniel Levine, Susi Lehtola, Hugh Burton, Evgeny Epifanovsky
 -----------------------------------------------------------------------
 Exchange:     0.2000 Hartree-Fock + 0.0800 Slater + 0.7200 B88
 Correlation:  0.1900 VWN1RPA + 0.8100 LYP
 Using SG-1 standard quadrature grid
 using 8 threads for integral computing
 -------------------------------------------------------
 OpenMP Integral computing Module                
 Release: version 1.0, May 2013, Q-Chem Inc. Pittsburgh 
 -------------------------------------------------------
 -------------------------------------------------------
 OpenMP BLAS3 based DFT computing Module                
 Release: version 1.0, May 2013, Q-Chem Inc. Pittsburgh 
 -------------------------------------------------------
 A restricted SCF calculation will be
 performed using DIIS
 SCF converges when DIIS error is below 1.0e-08
 ---------------------------------------
  Cycle       Energy         DIIS error
 ---------------------------------------
                                                                                                                                                                                                                                                                                                                                                                                                                                                                                                                                                                                                                                                                                                                                                                                                                                                                                                                                                                                                                                                                                                                                                                                                                                                                                                                                                                                                                                                                                                                                                                                                                                                                                                                                                                                                                                                                                                                                                                                                                                                                                                                                                                                                                                                                                                                                                                                                                                                                                                                                                                                                                                                                                                                                                                                                                                                                                                                                                                                                                                                                                                                                                                                                                                                                                                                                                                                                                                                                                                                                                                                                                                                                                                                                                                                                                                                                                                                                                                                                                                                                                                                                                                                                                                                                                                                                                                                                                                                                                                                                                                                                                                                                                                                                                                                                                                                                                                                                                                                                                                                                                                                                                                                                                                                                                                                                                                                                                                                                                                                                                                                                                                                                                                                                                                                                                                                                                                                                                                                                                                                                                                                                                                                                                                                                                                                                                                                                                                                                                                                                                                                                                                                                                                                                                                                                                                                                                                                                                                                                                                                                                                                                                                                                                                                                                                                                                                                                                                                                                                                                                                                                                                                                                                                                                                                                                                                                                                                                                                                                                                                                                                                                                                                                                                                                                                                                                                                                                                                                                                                                                                                                                                                                                                                                                                                                                                                                                                                                                                                                                                                                                                                                                                                                                                                                                                                                                                                                                                                                                                                                                                                                                                                                                                                                                                                                                                                                                                                                                                                                                                                                                                                                                                                                                                                                                                                                                                                                                                                                                                                                                                                                                                                                                                                                                                                                                                                                                                                                                                                                                                                                                                                                                                                                                                                                                                                                                                                                                                                                                                                                                                                                                                                                                                                                                                                                                                                                                                                                                                                                                                                                                                                                                                                                                                                                                                                                                                                                                                                                                                                                                                                                                                                                                                                                                                                                                                                                                                                                                                                                                                                                                                                                                                                                                                                                                                                                                                                                                                                                                                                                                                                                                                                                                                                                                                                                                                                                                                                                                                                                                                                                                                                                                                                                                                                                                                                                                                                                                                                                                                                                                                                                                                                                                                                                                                                                                                                                                                                                                                                                                                                                                                                                                                                                                                                                                                                                                                                                                                                                                                                                                                                                                                                                                                                                                                                                                                                                                                                                                                                                                                                                                                                                                                                                                                                                                                                                                                                                                                                                                                                                                                                                                                                                                                                                                                                                                                                                                                                                                                                                                                                                                                                                                                                                                                                                                                                                                                                                                                                                                                                                                                                                                                                                                                                                                                                                                                                                                                                                                                                                                                                                                                                                                                                                                                                                                                                                                                                                                                                                                                                                                                                                                                                                                                                                                                                                                                                                                                                                                                                                                                                                                                                                                                                                                                                                                                                                                                                                                                                                                                                                                                                                                                                                                                                                                                                                                                                                                                                                                                                                                                                                                                                                                                                                                                                                                                                                                                                                                                                                                                                                                                                                                                                                                                                                                                                                                                                                                                                                                                                                                                                                                                                                                                                                                                                                                                                                                                                                                                                                                                                                                                                                                                                                                                                                                                                                                                                                                                                                                                                                                                                                                                                                                                                                                                                                                                                                                                                                                                                                                                                                                                                                                                                                                                                                                                                                                                                                                                                                                                                                                                                                                                                                                                                                                                                                                                                                                                                                                                                                                                                                                                                                                                                                                                                                                                                                                                                                                                                                                                                                                                                                                                                                                                                                                                                                                                                                                                                                                                                                                                                                                                                                                                                                                                                                                                                                                                                                                                                                                                                                                                                                                                                                                                                                                                                                                                                                                                                                                                                                                                                                                                                                                                                                                                                                                                                                                                                                                                                                                                                                                                                                                                                                                                                                                                                                                                                                                                                                                                                                                                                                                                                                                                                                                                                                                                                                                                                                                                                                                                                                                                                                                                                                                                                                                                                                                                                                                                                                                                                                                                                                                                                                                                                                                                                                                                                                                                                                                                                                                                                                                                                                                                                                                                                                                                                                                                                                                                                                                                                                                                                                                                                                                                                                                                                                                                                                                                                                                                                                                                                                                                                                                                                                                                                                                                                                                                                                                                                                                                                                                                                                                                                                                                                                                                                                                                                                                                                                                                                                                                                                                                                                                                                                                                                                                                                                                                                                                                                                                                                                                                                                                                                                                                                                                                                                                                                                                                                                                                                                                                                                                                                                                                                                                                                                                                                                                                                                                                                                                                                                                                                                                                                                                                                                                                                                                                                                                                                                                                                                                                                                                                                                                                                                                                                                                                                                                                                                                                                                                                                                                                                                                                                                                                                                                                                                                                                                                                                                                                                                                                                                                                                                                                                                                                                                                                                                                                                                                                                                                                                                                                                                                                                                                                                                                                                                                                                                                                                                                                                                                                                                                                                                                                                                                                                                                                                                                                                                                                                                                                                                                                                                                                                                                                                                                                                                                                                                                                                                                                                                                                                                                                                                                                                                                                                                                                                                                                                                                                                                                                                                                                                                                                                                                                                                                                                                                                                                                                                                                                                                                                                                                                                                                                                                                                                                                                                                                                                                                                                                                                                                                                                                                                                                                                                                                                                                                                                                                                                                                                                                                                                                                                                                                                                                                                                                                                                                                                                                                                                                                                                                                                                                                                                                                                                                                                                                                                                                                                                                                                                                                                                                                                                                                                                                                                                                                                                                                                                                                                                                                                                                                                                                                                                                                                                                                                                                                                                                                                                                                                                                                                                                                                                                                                                                                                                                                                                                                                                                                                                                                                                                                                                                                                                                                                                                                                                                                                                                                                                                                                                                                                                                                                                                                                                                                                                                                                                                                                                                                                                                                                                                                                                                                                                                                                                                                                                                                                                                                                                                                                                                                                                                                                                                                                                                                                                                                                                                                                                                                                                                                                                                                                                                                                                                                                                                                                                                                                                                                                                                                                                                                                                                                                                                                                                                                                                                                                                                                                                                                                                                                                                                                                                                                                                                                                                                                                                                                                                                                                                                                                                                                                                                                                                                                                                                                                                                                                                                                                                                                                                                                                                                                                                                                                                                                                                                                                                                                                                                                                                                                                                                                                                                                                                                                                                                                                                                                                                                                                                                                                                                                                                                                                                                                                                                                                                                                                                                                                                                                                                                                                                                                                                                                                                                                                                                                                                                                                                                                                                                                                                                                                                                                                                                                                                                                                                                                                                                                                                                                                                                                                                                                                                                                                                                                                                                                                                                                                                                                                                                                                                                                                                                                                                                                                                                                                                                                                                                                                                                                                                                                                                                                                                                                                                                                                                                                                                                                                                                                                                                                                                                                                                                                                                                                                                                                                                                                                                                                                                                                                                                                                                                                                                                                                                                                                                                                                                                                                                                                                                                                                                                                                                                                                                                                                                                                                                                                                                                                                                                                                                                                                                                                                                                                                                                                                                                                                                                                                                                                                                                                                                                                                                                                                                                                                                                                                                                                                                                                                                                                                                                                                                                                                                                                                                                                                                                                                                                                                                                                                                                                                                                                                                                                                                                                                                                                                                                                                                                                                                                                                                                                                                                                                                                                                                                                                                                                                                                                                                                                                                                                                                                                                                                                                                                                                                                                                                                                                                                                                                                                                                                                                                                                                                                                                                                                                                                                                                                                                                                                                                                                                                                                                                                                                                                                                                                                                                                                                                                                                                                                                                                                                                                                                                                                                                                                                                                                                                                                                                                                                                                                                                                                                                                                                                                                                                                                                                                                                                                                                                                                                                                                                                                                                                                                                                                                                                                                                                                                                                                                                                                                                                                                                                                                                                                                                                                                                                                                                                                                                                                                                                                                                                                                                                                                                                                                                                                                                                                                                                                                                                                                                                                                                                                                                                                                                                                                                                                                                                                                                                                                                                                                                                                                                                                                                                                                                                                                                                                                                                                                                                                                                                                                                                                                                                                                                                                                                                                                                                                                                                                                                                                                                                                                                                                                                                                                                                                                                                                                                                                                                                                                                                                                                                                                                                                                                                                                                                                                                                                                                                                                                                                                                                                                                                                                                                                                                                                                                                                                                                                                                                                                                                                                                                                                                                                                                                                                                                                                                                                                                                                                                                                                                                                                                                                                                                                                                                                                                                                                                                                                                                                                                                                                                                                                                                                                                                                                                                                                                                                                                                                                                                                                                                                                                                                                                                                                                                                                                                                                                                                                                                                                                                                                                                                                                                                                                                                                                                                                                                                                                                                                                                                                                                                                                                                                                                                                                                                                                                                                                                                                                                                                                                                                                                                                                                                                                                                                                                                                                                                                                                                                                                                                                                                                                                                                                                                                                                                                                                                                                                                                                                                                                                                                                                                                                                                                                                                                                                                                                                                                                                                                                                                                                                                                                                                                                                                                                                                                                                                                                                                                                                                                                                                                                                                                                                                                                                                                                                                                                                                                                                                                                                                                                           
[...]
    1  -0.0000702   0.0003159  -0.0000613   0.0000652   0.0000251   0.0000751
    2   0.0000214  -0.0001558  -0.0000045  -0.0000181   0.0006562  -0.0002676
    3   0.0000062  -0.0001302   0.0000460  -0.0000923  -0.0002255  -0.0001080
           31          32          33          34          35          36
    1  -0.0000590   0.0000164  -0.0001446   0.0001259  -0.0000890   0.0001010
    2   0.0009259  -0.0003741  -0.0000072   0.0000178  -0.0000566   0.0000663
    3  -0.0002786  -0.0000794  -0.0002128  -0.0000204   0.0002932   0.0000608
           37          38          39          40          41          42
    1   0.0001382   0.0000639  -0.0001164  -0.0000264   0.0001926  -0.0000285
    2  -0.0001453  -0.0001925   0.0001100  -0.0001093   0.0001931   0.0000025
    3  -0.0001465  -0.0000591   0.0001193  -0.0001119  -0.0000554   0.0001499
           43          44          45          46          47          48
    1  -0.0000334   0.0000503  -0.0002657   0.0001558   0.0003611  -0.0005271
    2  -0.0000156  -0.0001090  -0.0001457   0.0000942   0.0023498   0.0000504
    3  -0.0000175   0.0000244  -0.0010748   0.0001338   0.0026806  -0.0002098
           49          50          51          52          53          54
    1  -0.0000470   0.0006807  -0.0000126   0.0000012   0.0000149  -0.0000011
    2   0.0000020  -0.0002060  -0.0000181  -0.0000574  -0.0000399  -0.0000869
    3  -0.0000033  -0.0007752   0.0001487   0.0000151  -0.0001052  -0.0000166
           55          56          57          58          59          60
    1   0.0000476  -0.0000476  -0.0000217   0.0000132   0.0000066   0.0000190
    2   0.0000492  -0.0000432   0.0000130  -0.0000181   0.0000070   0.0000689
    3  -0.0000080   0.0000120   0.0000208   0.0000000  -0.0000081   0.0000591
           61          62          63          64          65          66
    1   0.0000091  -0.0000082   0.0000036  -0.0000016  -0.0010129   0.0007590
    2   0.0000863   0.0000305  -0.0000354  -0.0000366  -0.0004111   0.0013831
    3   0.0000005  -0.0000077   0.0000079   0.0000037   0.0004321   0.0005800
           67          68          69          70          71          72
    1   0.0001652  -0.0000795  -0.0010036   0.0000648   0.0002186   0.0004930
    2  -0.0004306  -0.0000213  -0.0016002   0.0002278  -0.0003359  -0.0001189
    3  -0.0005986   0.0000225  -0.0021218  -0.0002326   0.0002583   0.0000893
           73          74          75          76          77          78
    1  -0.0001174  -0.0000199   0.0001928  -0.0002247   0.0001022  -0.0001281
    2   0.0000745  -0.0002024   0.0003454   0.0002535  -0.0001037  -0.0003153
    3   0.0003944  -0.0000241   0.0000691   0.0000032   0.0000157  -0.0006486
           79          80          81          82          83          84
    1   0.0006956  -0.0004042  -0.0005388   0.0005118   0.0001082  -0.0000038
    2   0.0000532  -0.0006105   0.0000326  -0.0002745   0.0002219   0.0000291
    3  -0.0000918   0.0001054   0.0000469  -0.0007368  -0.0001363  -0.0000190
           85          86          87          88
    1   0.0006463  -0.0003896   0.0000416  -0.0000957
    2   0.0002872  -0.0010941   0.0000018  -0.0000460
    3   0.0001693   0.0014317  -0.0002158   0.0001315
 Max gradient component =       2.681E-03
 RMS gradient           =       4.435E-04
 Gradient time:  CPU 199.73 s  wall 33.59 s
 Geometry Optimization Parameters
   NAtoms,    NIC,     NZ,  NCons,   NDum,   NFix, NCnnct, MaxDiis
       88     701       0       0       0       0       0       0

 Cartesian Hessian Update
 Hessian Updated using BFGS Update


** GEOMETRY OPTIMIZATION IN DELOCALIZED INTERNAL COORDINATES **
   Searching for a Minimum

   Optimization Cycle:  50

                       Coordinates (Angstroms)
     ATOM                X               Y               Z
      1  N         9.0879024072   -0.4079322965   -0.6087237317
      2  C         7.7723002169    0.1014890067   -0.9482586181
      3  H         9.8712128112    0.1081293031   -0.9840237137
      4  H         9.1654585851   -1.4135345706   -0.7041707173
      5  C         6.7221176024   -0.9068406686   -0.5053577284
      6  H         7.6042297234    0.2703728761   -2.0327329808
      7  H         7.5935882878    1.0649642065   -0.4532658736
      8  N         5.5088055051   -0.4123575024   -0.1578414832
      9  C         4.3859858659   -1.2787014712    0.1768953931
     10  H         5.3124395593    0.5822741748   -0.1575741971
     11  C         3.1229603753   -0.4189248313    0.1518893573
     12  N         1.9628863821   -1.0490242139    0.4332641967
     13  C         0.6737231288   -0.3624731898    0.4366387149
     14  H         1.9120852364   -2.0540950124    0.5967118528
     15  C        -0.4049751347   -1.4449409404    0.3202348759
     16  N        -1.6288236266   -1.0037988397   -0.0436841736
     17  C        -2.7798900114   -1.8925045604   -0.2704186179
     18  H        -1.7842077546   -0.0240975950   -0.2489565561
     19  C        -3.9976643720   -0.9857363266   -0.1171648570
     20  N        -5.0634123675   -1.4524286754    0.5516565733
     21  C        -6.2861612225   -0.6768656281    0.7477960291
     22  H        -5.0834117333   -2.3876857284    0.9497143652
     23  C        -7.2024668123   -1.4693580251    1.6620717000
     24  H        -6.7884090942   -0.4982102008   -0.2147249356
     25  H        -6.0582914817    0.3081686580    1.1754289806
     26  O        -8.3518045756   -0.8456967770    2.0559148890
     27  H        -8.4340783725    0.0858234374    1.7618305190
     28  O         6.9704267150   -2.1439558501   -0.5133658114
     29  O         3.1810499002    0.8169062241   -0.1104894029
     30  O        -0.1358675145   -2.6508905635    0.5560459461
     31  O        -3.9489110609    0.1889133841   -0.6021485159
     32  O        -6.9499276849   -2.6170593514    2.0257709270
     33  C         4.5721700544   -2.0252495564    1.5590419444
     34  H         4.2987213233   -2.0451411404   -0.6039644601
     35  C         4.4749898922   -3.5092384270    1.4362952979
     36  H         3.8288342764   -1.6732581881    2.2815877658
     37  H         5.5540246227   -1.7322956608    1.9478994318
     38  C         3.5849209837   -4.4487954244    1.9247769288
     39  N         3.9453279604   -5.7263638025    1.4982192248
     40  H         2.7230997753   -4.2944553430    2.5543235340
     41  C         5.0402569347   -5.5578992149    0.7556323616
     42  N         5.3995877931   -4.2329599172    0.6872767625
     43  H         5.5880010539   -6.3438356811    0.2634315412
     44  H         6.1634335963   -3.7927480026    0.1780072264
     45  C         0.5235192032    0.4962079033    1.7161211322
     46  H         0.6234187580    0.3136600534   -0.4237628448
     47  O        -0.7014251162    1.2874255467    1.6543671980
     48  H         1.3629955687    1.1914821203    1.7630493382
     49  H         0.5396458429   -0.1526080739    2.5988612698
     50  H        -1.3132945938    1.0420145025    2.3721130574
     51  C        -2.6582289606   -2.5530780772   -1.6763379818
     52  H        -2.7675845195   -2.6685465757    0.5005301472
     53  C        -3.6164581319   -3.7205163180   -2.0368367929
     54  H        -1.6330328591   -2.9398137453   -1.7136064572
     55  H        -2.7378704188   -1.7583380350   -2.4291381809
     56  C        -5.0340024286   -3.2712944384   -2.4478553337
     57  H        -5.6061808589   -2.8830173164   -1.5979682795
     58  H        -5.5964247853   -4.1189961884   -2.8560425401
     59  H        -4.9976975280   -2.4909424593   -3.2173518232
     60  C        -3.6573824061   -4.8119953433   -0.9477451797
     61  H        -3.1626557244   -4.1760441043   -2.9303514568
     62  H        -4.1991262278   -4.4789420107   -0.0525601822
     63  H        -2.6482547183   -5.1095489473   -0.6398565365
     64  H        -4.1752565688   -5.7039397097   -1.3166796347
     65  C        -3.1227000684    3.8473181837   -1.0748557435
     66  C        -3.0042357537    3.3848365080    0.3679179450
     67  C        -4.3538234606    3.2401089956    1.0614372124
     68  H        -2.4117229478    4.1057077218    0.9366592600
     69  H        -2.4677641070    2.4269086402    0.3788136007
     70  O        -5.1229036551    2.1841411937    0.6529116658
     71  H        -4.7047336790    1.5765883854   -0.0225987802
     72  O        -4.1836559216    4.0315118140   -1.6625796430
     73  O        -4.7345316624    3.9853058620    1.9606060444
     74  C         4.3833949318    3.8990440476    0.6403139091
     75  C         3.1731067344    4.5218315657   -0.0321308891
     76  H         4.1202348613    2.9860431428    1.1823048053
     77  H         4.8224004156    4.6256386948    1.3247116706
     78  H         5.1314859514    3.6375781368   -0.1199414441
     79  N         2.3405079682    3.6308979906   -0.6665905285
     80  C         1.1944366931    4.0842325038   -1.4506148212
     81  H         2.5473804614    2.6382914504   -0.6115798323
     82  C        -0.1219723995    3.5182901243   -0.9034485872
     83  H         1.3168204358    3.7975287072   -2.5035546755
     84  H         1.1917053338    5.1758088490   -1.3958722466
     85  S        -1.5356984658    4.1902702894   -2.0029211718
     86  H        -0.2747792784    3.8098238730    0.1378377868
     87  H        -0.1459378314    2.4281265776   -0.9689236192
     88  O         2.9748659144    5.7574875371   -0.0360398151
   Point Group: c1    Number of degrees of freedom:   258


   Energy is  -2679.086136128

 Hessian Updated using BFGS Update

258 Hessian modes will be used to form the next step
  Hessian Eigenvalues:
     0.000332    0.002157    0.002576    0.003010    0.004067    0.004682
     0.004796    0.006108    0.006924    0.007163    0.007494    0.007694
     0.007936    0.008176    0.008832    0.008927    0.009620    0.010107
     0.010282    0.010415    0.010959    0.011550    0.012808    0.012859
     0.013217    0.013527    0.013672    0.014018    0.014304    0.014840
     0.015825    0.016364    0.017463    0.017648    0.018078    0.019069
     0.019473    0.020020    0.021202    0.021324    0.022208    0.022757
     0.022893    0.022993    0.023291    0.024519    0.024674    0.025813
     0.026599    0.027667    0.028748    0.029515    0.030613    0.031676
     0.032250    0.033098    0.034141    0.034809    0.036810    0.037277
     0.038769    0.040577    0.041763    0.041919    0.043360    0.044097
     0.046557    0.046742    0.047643    0.047877    0.050311    0.051098
     0.051985    0.052133    0.052788    0.053601    0.054158    0.054487
     0.054723    0.055730    0.056303    0.056722    0.057563    0.057759
     0.058076    0.059657    0.062416    0.062417    0.064188    0.064762
     0.065162    0.066243    0.067604    0.070505    0.072335    0.073750
     0.075987    0.076495    0.082432    0.087639    0.088079    0.091913
     0.092012    0.092384    0.096591    0.098216    0.099217    0.101484
     0.102596    0.112656    0.117086    0.125550    0.128548    0.132035
     0.134631    0.137227    0.137812    0.148824    0.151103    0.154155
     0.158519    0.159856    0.160000    0.160028    0.160037    0.160086
     0.160131    0.160253    0.160317    0.160546    0.160897    0.161197
     0.162163    0.165016    0.166365    0.172724    0.177241    0.179246
     0.181858    0.184856    0.190148    0.193352    0.196023    0.203281
     0.206585    0.208254    0.220427    0.224423    0.225960    0.229182
     0.231011    0.233354    0.236944    0.239169    0.243597    0.245945
     0.247942    0.248455    0.249979    0.250253    0.250347    0.251474
     0.252706    0.253822    0.255692    0.262056    0.264474    0.268789
     0.270202    0.273793    0.281477    0.285657    0.290211    0.290905
     0.291477    0.291842    0.299265    0.301092    0.302646    0.306269
     0.308142    0.310720    0.313619    0.314737    0.316800    0.319506
     0.320488    0.321318    0.322270    0.322639    0.323305    0.323604
     0.323820    0.324032    0.324311    0.324384    0.324684    0.324781
     0.324945    0.325032    0.325162    0.325204    0.325492    0.325669
     0.325872    0.326286    0.326968    0.328027    0.328477    0.329681
     0.332934    0.339218    0.347848    0.352531    0.356932    0.357698
     0.364843    0.365573    0.367567    0.370508    0.374957    0.389634
     0.398805    0.404348    0.405928    0.410132    0.416601    0.423327
     0.424986    0.426670    0.431501    0.439342    0.454291    0.467473
     0.492751    0.502777    0.511251    0.519189    0.522164    0.528734
     0.531520    0.534630    0.539126    0.541421    0.554953    0.559100
     0.573903    0.626018    0.894665    0.918514    0.940289    0.942550
     0.945983    0.948625    0.950975    0.965077    2.358425    6.757859

 Minimum Search - Taking Simple RFO Step
 Searching for Lamda that Minimizes Along All modes
 Value Taken    Lamda =  -0.00143857
 Calculated Step too Large.  Step scaled by  0.369091
 Step Taken.  Stepsize is  0.300000

                             Maximum     Tolerance    Cnvgd?
         Gradient           0.004336      0.000300      NO
         Displacement       0.067018      0.001200      NO
         Energy change     -0.000425      0.000001      NO


 New Cartesian Coordinates Obtained by Inverse Iteration

 Displacement from previous Coordinates is:  0.636295
 ----------------------------------------------------------------
             Standard Nuclear Orientation (Angstroms)
    I     Atom           X                Y                Z
 ----------------------------------------------------------------
    1      N       9.0817907382    -0.4365037868    -0.6660943642
    2      C       7.7638336348     0.0771275851    -0.9935664926
    3      H       9.8611317055     0.0725516127    -1.0598809420
    4      H       9.1526048038    -1.4429845017    -0.7617302415
    5      C       6.7146995835    -0.9251314628    -0.5354039151
    6      H       7.5852088532     0.2429667832    -2.0766034705
    7      H       7.5947928656     1.0429278540    -0.4997886754
    8      N       5.5086749825    -0.4240601388    -0.1725859437
    9      C       4.3855319504    -1.2819678822     0.1809570710
   10      H       5.3177060173     0.5712798211    -0.1704029440
   11      C       3.1264357563    -0.4153800336     0.1653711238
   12      N       1.9649833118    -1.0422021708     0.4486957323
   13      C       0.6763559664    -0.3541533672     0.4561605431
   14      H       1.9124884714    -2.0473021851     0.6117963965
   15      C      -0.4025344448    -1.4355496657     0.3311051661
   16      N      -1.6220151588    -0.9954693375    -0.0466410962
   17      C      -2.7728078352    -1.8847206127    -0.2742167819
   18      H      -1.7790335314    -0.0165393431    -0.2552596917
   19      C      -3.9905732424    -0.9764952140    -0.1221252181
   20      N      -5.0615313125    -1.4470335541     0.5358643052
   21      C      -6.2865042849    -0.6737850746     0.7240547001
   22      H      -5.0860830235    -2.3868589757     0.9228211048
   23      C      -7.2213225734    -1.4826860703     1.6048176317
   24      H      -6.7697908467    -0.4749255752    -0.2441133916
   25      H      -6.0654501486     0.3020670983     1.1760100527
   26      O      -8.3778783853    -0.8649509782     1.9878182057
   27      H      -8.4552509226     0.0706649420     1.7058660114
   28      O       6.9572798146    -2.1633029899    -0.5448198809
   29      O       3.1892186245     0.8215131830    -0.0909280373
   30      O      -0.1361830208    -2.6410085144     0.5740072679
   31      O      -3.9385211494     0.2005306405    -0.5991971390
   32      O      -6.9745903194    -2.6352101615     1.9564563839
   33      C       4.5815596483    -2.0203979249     1.5663864143
   34      H       4.2853656411    -2.0527578583    -0.5937973198
   35      C       4.4847338649    -3.5055361469     1.4539230780
   36      H       3.8408979153    -1.6659202746     2.2905916276
   37      H       5.5645041539    -1.7226506562     1.9495259125
   38      C       3.6056583351    -4.4425578074     1.9664767467
   39      N       3.9596120939    -5.7229002100     1.5430664665
   40      H       2.7560467617    -4.2844171460     2.6113729638
   41      C       5.0398013868    -5.5585054406     0.7782516461
   42      N       5.3960114097    -4.2338196100     0.6930027260
   43      H       5.5792669651    -6.3474258917     0.2816242908
   44      H       6.1490628359    -3.7965421691     0.1646457626
   45      C       0.5190509660     0.4937654410     1.7419216524
   46      H       0.6276548471     0.3274281789    -0.3997686749
   47      O      -0.7082681305     1.2800591479     1.6771263370
   48      H       1.3565188448     1.1917153809     1.8043326849
   49      H       0.5302999316    -0.1642074735     2.6182278271
   50      H      -1.3199198729     1.0351195519     2.3949711051
   51      C      -2.6470714073    -2.5481641793    -1.6781309746
   52      H      -2.7616057540    -2.6588672492     0.4987115928
   53      C      -3.6038138255    -3.7167534056    -2.0397059503
   54      H      -1.6217452838    -2.9350233904    -1.7106670197
   55      H      -2.7238667818    -1.7555697581    -2.4336070300
   56      C      -5.0196102486    -3.2690305574    -2.4572636555
   57      H      -5.5961168601    -2.8798820287    -1.6108074872
   58      H      -5.5799764082    -4.1175106419    -2.8668173943
   59      H      -4.9805035645    -2.4898020936    -3.2278773809
   60      C      -3.6475601975    -4.8058775280    -0.9483847844
   61      H      -3.1463904108    -4.1741153858    -2.9305264817
   62      H      -4.1927900189    -4.4718627568    -0.0555717466
   63      H      -2.6391383601    -5.1014524658    -0.6363287140
   64      H      -4.1634139809    -5.6990308178    -1.3172808491
   65      C      -3.1318601031     3.8210022195    -1.0687302278
   66      C      -3.0102759692     3.4029853174     0.3882558740
   67      C      -4.3544738613     3.2490097012     1.0884061647
   68      H      -2.4314085238     4.1508817394     0.9361603828
   69      H      -2.4546917371     2.4566821826     0.4279128383
   70      O      -5.1130801824     2.1803310212     0.6914321379
   71      H      -4.6980309507     1.5849106949     0.0038275933
   72      O      -4.1930002282     3.9678487659    -1.6657780137
   73      O      -4.7376610609     3.9931518170     1.9870861348
   74      C       4.3789228042     3.9235801151     0.6437132335
   75      C       3.1629187685     4.5291808627    -0.0330069262
   76      H       4.1290130622     3.0059907149     1.1840763687
   77      H       4.8064255787     4.6559982993     1.3293489489
   78      H       5.1320834323     3.6747976782    -0.1155493074
   79      N       2.3362717088     3.6246288130    -0.6559656726
   80      C       1.1898117372     4.0623455677    -1.4483438504
   81      H       2.5479968391     2.6331666612    -0.5850220280
   82      C      -0.1304666881     3.5329298755    -0.8729387557
   83      H       1.3029499195     3.7341215973    -2.4899001013
   84      H       1.1983499512     5.1551699581    -1.4334413656
   85      S      -1.5436222054     4.1679312840    -1.9968643875
   86      H      -0.2761604547     3.8718701712     0.1540628197
   87      H      -0.1643813896     2.4415176609    -0.8902463242
   88      O       2.9562699234     5.7632301962    -0.0522613911
 ----------------------------------------------------------------
 Molecular Point Group                 C1    NOp =  1
 Largest Abelian Subgroup              C1    NOp =  1
 Nuclear Repulsion Energy =  6227.0795014035 hartrees
 There are      179 alpha and      179 beta electrons


 *******************************************
 **  MAXIMUM OPTIMIZATION CYCLES REACHED  **
 *******************************************

 Q-Chem fatal error occurred in module 0, line  456:

 Maximum optimization cycles reached

