
Running Job 1 of 1 GHSLG_opt.in
qchem GHSLG_opt.in_11629.0 /scr/c295_krishna/137207/qchem11629/ 1
/usr/software/qchem_511/exe/qcprog.exe_s GHSLG_opt.in_11629.0 /scr/c295_krishna/137207/qchem11629/
Check license passed

                  Welcome to Q-Chem
     A Quantum Leap Into The Future Of Chemistry


 Q-Chem 5.1, Q-Chem, Inc., Pleasanton, CA (2018)

 Yihan Shao,  Zhengting Gan,  E. Epifanovsky,  A. T. B. Gilbert,  M. Wormit,  
 J. Kussmann,  A. W. Lange,  A. Behn,  Jia Deng,  Xintian Feng,  D. Ghosh,  
 M. Goldey,  P. R. Horn,  L. D. Jacobson,  I. Kaliman,  T. Kus,  A. Landau,  
 Jie Liu,  E. I. Proynov,  R. M. Richard,  R. P. Steele,  E. J. Sundstrom,  
 H. L. Woodcock III,  P. M. Zimmerman,  D. Zuev,  B. Albrecht,  E. Alguire,  
 S. A. Baeppler,  D. Barton,  Z. Benda,  Y. A. Bernard,  E. J. Berquist,  
 K. B. Bravaya,  H. Burton,  D. Casanova,  Chun-Min Chang,  Yunqing Chen,  
 A. Chien,  K. D. Closser,  M. P. Coons,  S. Coriani,  S. Dasgupta,  
 A. L. Dempwolff,  M. Diedenhofen,  Hainam Do,  R. G. Edgar,  Po-Tung Fang,  
 S. Faraji,  S. Fatehi,  Qingguo Feng,  K. D. Fenk,  J. Fosso-Tande,  
 Qinghui Ge,  A. Ghysels,  G. Gidofalvi,  J. Gomes,  J. Gonthier,  A. Gunina,  
 D. Hait,  M. W. D. Hanson-Heine,  P. H. P. Harbach,  A. W. Hauser,  
 J. E. Herr,  E. G. Hohenstein,  Z. C. Holden,  Kerwin Hui,  B. C. Huynh,  
 T.-C. Jagau,  Hyunjun Ji,  B. Kaduk,  K. Khistyaev,  Jaehoon Kim,  
 P. Klunzinger,  K. Koh,  D. Kosenkov,  L. Koulias,  T. Kowalczyk,  
 C. M. Krauter,  A. Kunitsa,  Ka Un Lao,  A. Laurent,  K. V. Lawler,  
 Joonho Lee,  D. Lefrancois,  S. Lehtola,  D. S. Levine,  Yi-Pei Li,  
 You-Sheng Lin,  Fenglai Liu,  E. Livshits,  A. Luenser,  P. Manohar,  
 E. Mansoor,  S. F. Manzer,  Shan-Ping Mao,  Yuezhi Mao,  N. Mardirossian,  
 A. V. Marenich,  T. Markovich,  L. A. Martinez-Martinez,  S. A. Maurer,  
 N. J. Mayhall,  S. C. McKenzie,  J.-M. Mewes,  A. F. Morrison,  
 J. W. Mullinax,  K. Nanda,  T. S. Nguyen-Beck,  R. Olivares-Amaya,  
 J. A. Parkhill,  T. M. Perrine,  F. Plasser,  P. Pokhilko,  S. Prager,  
 A. Prociuk,  E. Ramos,  D. R. Rehn,  F. Rob,  M. Schneider,  N. Sergueev,  
 S. M. Sharada,  S. Sharma,  D. W. Small,  T. Stauch,  T. Stein,  
 Yu-Chuan Su,  A. J. W. Thom,  A. Tkatchenko,  T. Tsuchimochi,  N. M. Tubman,  
 L. Vogt,  M. L. Vidal,  O. Vydrov,  M. A. Watson,  J. Wenzel,  
 M. de Wergifosse,  T. A. Wesolowski,  A. White,  J. Witte,  A. Yamada,  
 Jun Yang,  K. Yao,  S. Yeganeh,  S. R. Yost,  Zhi-Qiang You,  A. Zech,  
 Igor Ying Zhang,  Xing Zhang,  Yan Zhao,  Ying Zhu,  B. R. Brooks,  
 G. K. L. Chan,  C. J. Cramer,  M. S. Gordon,  W. J. Hehre,  A. Klamt,  
 M. W. Schmidt,  C. D. Sherrill,  D. G. Truhlar,  A. Aspuru-Guzik,  R. Baer,  
 A. T. Bell,  N. A. Besley,  Jeng-Da Chai,  A. E. DePrince, III,  
 R. A. DiStasio Jr.,  A. Dreuw,  B. D. Dunietz,  T. R. Furlani,  
 Chao-Ping Hsu,  Yousung Jung,  Jing Kong,  D. S. Lambrecht,  WanZhen Liang,  
 C. Ochsenfeld,  V. A. Rassolov,  L. V. Slipchenko,  J. E. Subotnik,  
 T. Van Voorhis,  J. M. Herbert,  A. I. Krylov,  P. M. W. Gill,  M. Head-Gordon

 Contributors to earlier versions of Q-Chem not listed above: 
 R. D. Adamson,  B. Austin,  J. Baker,  G. J. O. Beran,  K. Brandhorst,  
 S. T. Brown,  E. F. C. Byrd,  A. K. Chakraborty,  C.-L. Cheng,  
 Siu Hung Chien,  D. M. Chipman,  D. L. Crittenden,  H. Dachsel,  
 R. J. Doerksen,  A. D. Dutoi,  L. Fusti-Molnar,  W. A. Goddard III,  
 A. Golubeva-Zadorozhnaya,  S. R. Gwaltney,  G. Hawkins,  A. Heyden,  
 S. Hirata,  G. Kedziora,  F. J. Keil,  C. Kelley,  Jihan Kim,  R. A. King,  
 R. Z. Khaliullin,  P. P. Korambath,  W. Kurlancheek,  A. M. Lee,  M. S. Lee,  
 S. V. Levchenko,  Ching Yeh Lin,  D. Liotard,  R. C. Lochan,  I. Lotan,  
 P. E. Maslen,  N. Nair,  D. P. O'Neill,  D. Neuhauser,  E. Neuscamman,  
 C. M. Oana,  R. Olson,  B. Peters,  R. Peverati,  P. A. Pieniazek,  
 Y. M. Rhee,  J. Ritchie,  M. A. Rohrdanz,  E. Rosta,  N. J. Russ,  
 H. F. Schaefer III,  N. E. Schultz,  N. Shenvi,  A. C. Simmonett,  A. Sodt,  
 D. Stuck,  K. S. Thanthiriwatte,  V. Vanovschi,  Tao Wang,  A. Warshel,  
 C. F. Williams,  Q. Wu,  X. Xu,  W. Zhang

 Please cite Q-Chem as follows:
 Y. Shao et al., Mol. Phys. 113, 184-215 (2015)
 DOI: 10.1080/00268976.2014.952696

 Q-Chem 5.1.1 for Intel X86 EM64T Linux

 Parts of Q-Chem use Armadillo 8.300.2 (Tropical Shenanigans).
 http://arma.sourceforge.net/

 Q-Chem begins on Thu Nov  1 01:18:51 2018  

Host: cub-0-8.local
0

     Scratch files written to /scr/c295_krishna/137207/qchem11629//
 Aug318 |scratch|qcdevops|jenkins|workspace|build_RNUM -1
Processing $rem in /usr/software/qchem_511/config/preferences.
 MEM_TOTAL  2000 
Input Ideriv = 2
Curr. Ideriv = -1
Max.  Ideriv = 2

Checking the input file for inconsistencies... 	...done.

--------------------------------------------------------------
User input:
--------------------------------------------------------------
$comment
GHSLG peptide geom opt with no constraints.
$end

$molecule
0  1
N          0.09593        0.14597       -0.62693
C          1.50530       -0.14500       -0.37715
C          1.87802        0.09351        1.06605
O          1.03533        0.49789        1.85563
H          1.70152       -1.21174       -0.61914
H          2.13978        0.49097       -1.03300
H         -0.07333        1.16843       -0.48614
H         -0.11514       -0.07575       -1.62657
N          3.15971       -0.13504        1.47198
C          3.61308        0.05215        2.85467
C          5.14256       -0.06393        2.95434
O          5.78769       -0.41200        1.97437
C          2.90701       -0.99603        3.76376
H          3.25296       -2.01195        3.47278
H          1.81027       -0.96494        3.61571
C          3.11960       -0.78218        5.23272
N          2.74263        0.31590        5.90812
C          3.11735        0.09959        7.18198
H          2.95646        0.80545        7.98600
N          3.71722       -1.09870        7.34323
C          3.71713       -1.65557        6.11574
H          4.12857       -2.62911        5.88503
H          2.26191        1.16197        5.52960
H          3.82550       -0.43461        0.74458
H          3.33838        1.08573        3.16062
N          5.79679        0.21029        4.12199
C          7.24818        0.07579        4.26224
C          7.67852        0.07542        5.73050
O          6.86849        0.34559        6.60656
H          7.53347       -0.92325        3.86349
C          7.94957        1.20197        3.46697
H          7.62033        1.18287        2.40687
H          7.66194        2.18076        3.91419
O          9.34164        1.05670        3.49447
H          9.71397        1.86062        3.04748
H          5.24068        0.50046        4.93348
N          8.95973       -0.25782        6.06708
C          9.44469       -0.33151        7.44441
C         10.94667       -0.53943        7.41976
O         11.40090       -1.55282        6.90399
H          9.21976        0.63887        7.93615
H          9.61969       -0.47419        5.30585
C          8.72803       -1.48650        8.20863
H          7.63377       -1.32686        8.13740
H          8.93722       -2.44911        7.69224
C          9.01743       -1.65998        9.72620
H          8.33578       -2.46829       10.07468
C          8.68155       -0.39471       10.52512
H          8.79846       -0.58802       11.61277
H          7.62964       -0.09080       10.33905
H          9.35591        0.44226       10.24815
C         10.43958       -2.13973       10.04724
H         10.52054       -2.37117       11.13068
H         11.20217       -1.37175        9.82551
H         10.66893       -3.06703        9.48078
N         11.78408        0.39089        7.95670
C         13.22822        0.20927        7.94082
C         13.98312        1.34585        8.59211
O         13.39878        2.30400        9.07327
H         13.48325       -0.72812        8.48091
H         13.57254        0.12282        6.88762
H         11.37280        1.23433        8.38271
O         15.33084        1.30755        8.64772
H         15.83189        0.56667        8.27877


$end

$rem
JOBTYPE           opt
EXCHANGE        b3lyp
BASIS             6-31G*
--------------------------------------------------------------
 ----------------------------------------------------------------
             Standard Nuclear Orientation (Angstroms)
    I     Atom           X                Y                Z
 ----------------------------------------------------------------
    1      N       9.2360162850     1.3166695606     0.0027360458
    2      C       7.9302864064     1.7628732510     0.4816401457
    3      C       6.8152295280     0.8891666378    -0.0398177821
    4      O       7.0708772048    -0.0489347123    -0.7825804086
    5      H       7.9199025375     1.7205918234     1.5920905644
    6      H       7.7555334053     2.8144537683     0.1641472514
    7      H       9.2809090243     1.4392492640    -1.0349797542
    8      H       9.9701774046     1.9286118503     0.4264393823
    9      N       5.5279483523     1.1646618345     0.3162062265
   10      C       4.3802874097     0.3648253956    -0.1260065290
   11      C       3.0549340882     1.0478543641     0.2476614343
   12      O       3.0682782756     2.0514219168     0.9479190602
   13      C       4.4811951884    -1.0548219067     0.5049292386
   14      H       4.3725881412    -0.9640727583     1.6078405273
   15      H       5.4749670649    -1.5003684682     0.3058570477
   16      C       3.4854489561    -2.0403308515    -0.0298897708
   17      N       3.4050883650    -2.4259663150    -1.3139764860
   18      C       2.3902399942    -3.3079129578    -1.3606380101
   19      H       2.0655948781    -3.8063564387    -2.2643701259
   20      N       1.8226420359    -3.5004407482    -0.1512951675
   21      C       2.5135991791    -2.7035094392     0.6879393767
   22      H       2.3163412670    -2.6129530204     1.7477407545
   23      H       4.0002812021    -2.1101664737    -2.1116101741
   24      H       5.3830998280     1.9941851586     0.9103772699
   25      H       4.4210221270     0.3049882348    -1.2360125226
   26      N       1.8580495973     0.5507419698    -0.1847351508
   27      C       0.5754420940     1.1550312217     0.1813874204
   28      C      -0.5972984173     0.2162033944    -0.1088919003
   29      O      -0.4144781010    -0.8157034245    -0.7400547972
   30      H       0.5768013337     1.3048255126     1.2841261433
   31      C       0.4139064538     2.5066504066    -0.5532659082
   32      H       1.2763852522     3.1687101305    -0.3288042366
   33      H       0.3879455255     2.3108403000    -1.6495099694
   34      O      -0.7566056085     3.1659087919    -0.1595675451
   35      H      -0.8321563407     3.9680885970    -0.7388055812
   36      H       1.8651741769    -0.2911077204    -0.7705775533
   37      N      -1.8438764115     0.5133765398     0.3639352185
   38      C      -3.0103081338    -0.3480081734     0.1765645707
   39      C      -4.2422024241     0.3902004249     0.6636649630
   40      O      -4.3161576180     0.7164043859     1.8415548063
   41      H      -3.1129772800    -0.5490087379    -0.9111380065
   42      H      -1.9665455924     1.3929058289     0.8866347431
   43      C      -2.8183408117    -1.6920849690     0.9435337871
   44      H      -1.8714952105    -2.1566579908     0.6035059868
   45      H      -2.6890357475    -1.4773200904     2.0271358116
   46      C      -3.8982238921    -2.7981815301     0.7783995821
   47      H      -3.5106685139    -3.6852010914     1.3283515943
   48      C      -4.0842099535    -3.2074987991    -0.6878423051
   49      H      -4.7816987493    -4.0692580849    -0.7578390178
   50      H      -3.1113578183    -3.5134547167    -1.1276691809
   51      H      -4.5058854689    -2.3719082137    -1.2844751107
   52      C      -5.2508534194    -2.4613169053     1.4207802738
   53      H      -5.9154447545    -3.3505391045     1.3812395782
   54      H      -5.7753680763    -1.6451894512     0.8922716791
   55      H      -5.1111408200    -2.1852132446     2.4873686679
   56      N      -5.2527991603     0.6954508329    -0.1968998512
   57      C      -6.4419119782     1.4048049312     0.2521055027
   58      C      -7.4509262372     1.6414256439    -0.8486976741
   59      O      -7.2485936096     1.2572841356    -1.9899760858
   60      H      -6.9374817987     0.8143311517     1.0528481517
   61      H      -6.1422871563     2.3918533276     0.6658935331
   62      H      -5.1618015978     0.4091890979    -1.1826992500
   63      O      -8.6020094816     2.2889947912    -0.5719846017
   64      H      -8.8011143661     2.6092679284     0.3190040301
 ----------------------------------------------------------------
 Molecular Point Group                 C1    NOp =  1
 Largest Abelian Subgroup              C1    NOp =  1
 Nuclear Repulsion Energy =  3461.3563514312 hartrees
 There are      125 alpha and      125 beta electrons
 Requested basis set is 6-31G(d)
 There are 194 shells and 557 basis functions

 Total QAlloc Memory Limit   2000 MB
 Mega-Array Size       188 MB
 MEM_STATIC part       192 MB
 A cutoff of  1.0D-11 yielded   8336 shell pairs
 There are     70547 function pairs
 
 -------------------------------------------------------
 OpenMP Integral Computing Module                       
 Release: version 1.0, May 2013, Q-Chem Inc. Pittsburgh 
 -------------------------------------------------------
 Integral Job Info:
 Integral job number is                      11
 Integral operator is                         1
 short-range coefficients                     0
 long-range coefficients              100000000
 Omega coefficients                           0
 if combine SR and LR in K                    0
 Integral screening is                        0
 Integral computing path is                   2
 max size of driver memory is            800000
 size of driver memory is                593474
 size of scratch memory is              2361544
 max col of scratch BK array               1296
 max len of scratch array in speh3          155
 max len of scratch index in speh4           18
 max int batch size is                      520
 min int batch size is                       52
 fixed nKL is                                52
 max L of basis functions is                  2
 order of int derivative is                   0
 number of shells is                        194
 number of basis is                         557
 number of cartesian basis is               557
 number of contracted shell pairs          8336
 number of primitive shell pairs          26423
 maxK2 (contraction) of shell pair           36
 max number of K2 of shell pair               1
 max number of CS2 of shell pair            990
 max number of PS2 of shell pair           4266
 mem total for path MDJ                  657612
 -------------------------------------------------------
 Smallest overlap matrix eigenvalue = 1.19E-03

 Scale SEOQF with 1.000000e-02/1.000000e-01/1.000000e-01

 Standard Electronic Orientation quadrupole field applied
 Nucleus-field energy     =     0.0000000655 hartrees
 Guess from superposition of atomic densities
 Warning:  Energy on first SCF cycle will be non-variational
 SAD guess density has 250.000001 electrons

 -----------------------------------------------------------------------
  General SCF calculation program by
  Eric Jon Sundstrom, Paul Horn, Yuezhi Mao, Dmitri Zuev, Alec White,
  David Stuck, Shaama M.S., Shane Yost, Joonho Lee, David Small,
  Daniel Levine, Susi Lehtola, Hugh Burton, Evgeny Epifanovsky
 -----------------------------------------------------------------------
 Exchange:     0.2000 Hartree-Fock + 0.0800 Slater + 0.7200 B88
 Correlation:  0.1900 VWN1RPA + 0.8100 LYP
 Using SG-1 standard quadrature grid
 using 8 threads for integral computing
 -------------------------------------------------------
 OpenMP Integral computing Module                
 Release: version 1.0, May 2013, Q-Chem Inc. Pittsburgh 
 -------------------------------------------------------
 -------------------------------------------------------
 OpenMP BLAS3 based DFT computing Module                
 Release: version 1.0, May 2013, Q-Chem Inc. Pittsburgh 
 -------------------------------------------------------
 A restricted SCF calculation will be
 performed using DIIS
 SCF converges when DIIS error is below 1.0e-08
 ---------------------------------------
  Cycle       Energy         DIIS error
 ---------------------------------------
    1   -1659.3681935474      3.44e-02  
    2   -1651.7420588842      4.83e-03  
    3   -1650.1880685525      8.63e-03  
    4   -1652.4205019305      1.70e-03  
    5   -1652.5133998258      4.08e-04  
    6   -1652.5177433872      1.54e-04  
    7   -1652.5184846317      4.74e-05  
    8   -1652.5185452074      2.15e-05  
    9   -1652.5185596209      4.77e-06  
   10   -1652.5185602785      1.67e-06  
   11   -1652.5185603521      7.70e-07  
   12   -1652.5185603710      1.95e-07  
   13   -1652.5185603720      8.80e-08  
   14   -1652.5185603723      2.14e-08  
   15   -1652.5185603723      8.46e-09  Convergence criterion met
 ---------------------------------------
 SCF time:   CPU 966.24s  wall 121.00s 
 SCF   energy in the final basis set =    -1652.5185603723
 Total energy in the final basis set =    -1652.5185603723
 
 --------------------------------------------------------------
 
                    Orbital Energies (a.u.)
 --------------------------------------------------------------
 
 Alpha MOs
 -- Occupied --
-19.220 -19.164 -19.156 -19.122 -19.120 -19.115 -19.106 -14.399
-14.381 -14.369 -14.363 -14.360 -14.318 -14.302 -10.349 -10.299
-10.296 -10.292 -10.282 -10.266 -10.254 -10.249 -10.247 -10.242
-10.230 -10.224 -10.207 -10.201 -10.186 -10.184 -10.178 -10.172
-10.169  -1.120  -1.051  -1.048  -1.041  -1.036  -1.034  -1.030
 -1.020  -0.934  -0.925  -0.919  -0.917  -0.876  -0.867  -0.805
 -0.798  -0.775  -0.765  -0.737  -0.728  -0.687  -0.672  -0.665
 -0.661  -0.654  -0.639  -0.615  -0.597  -0.590  -0.588  -0.576
 -0.575  -0.568  -0.553  -0.537  -0.530  -0.524  -0.515  -0.507
 -0.497  -0.493  -0.488  -0.483  -0.478  -0.469  -0.463  -0.456
 -0.454  -0.450  -0.446  -0.440  -0.438  -0.434  -0.431  -0.427
 -0.424  -0.421  -0.418  -0.406  -0.404  -0.398  -0.396  -0.394
 -0.393  -0.391  -0.389  -0.386  -0.374  -0.372  -0.368  -0.365
 -0.352  -0.348  -0.342  -0.335  -0.318  -0.316  -0.315  -0.296
 -0.286  -0.279  -0.270  -0.269  -0.262  -0.259  -0.256  -0.252
 -0.250  -0.247  -0.243  -0.231  -0.208
 -- Virtual --
 -0.013   0.007   0.010   0.021   0.030   0.033   0.036   0.050
  0.056   0.063   0.073   0.078   0.081   0.096   0.098   0.106
  0.115   0.118   0.128   0.132   0.137   0.141   0.142   0.144
  0.147   0.151   0.156   0.159   0.163   0.165   0.171   0.173
  0.176   0.178   0.179   0.183   0.187   0.196   0.201   0.205
  0.208   0.210   0.220   0.225   0.230   0.232   0.233   0.239
  0.240   0.244   0.251   0.260   0.266   0.272   0.278   0.286
  0.297   0.307   0.310   0.329   0.338   0.353   0.355   0.362
  0.370   0.397   0.406   0.417   0.435   0.440   0.458   0.487
  0.496   0.503   0.511   0.514   0.515   0.516   0.521   0.528
  0.533   0.534   0.542   0.545   0.553   0.557   0.563   0.567
  0.573   0.580   0.583   0.589   0.594   0.597   0.605   0.611
  0.623   0.624   0.635   0.636   0.645   0.650   0.651   0.657
  0.660   0.669   0.673   0.678   0.682   0.687   0.691   0.702
  0.704   0.710   0.716   0.724   0.727   0.730   0.736   0.748
  0.752   0.757   0.765   0.767   0.768   0.785   0.794   0.796
  0.802   0.803   0.806   0.810   0.812   0.816   0.819   0.820
  0.825   0.830   0.835   0.838   0.839   0.840   0.843   0.858
  0.862   0.867   0.869   0.874   0.876   0.881   0.885   0.886
  0.887   0.892   0.896   0.897   0.900   0.907   0.909   0.910
  0.914   0.919   0.921   0.925   0.926   0.935   0.942   0.948
  0.951   0.953   0.961   0.970   0.977   0.978   0.983   0.991
  0.994   1.000   1.008   1.012   1.018   1.027   1.035   1.048
  1.051   1.062   1.072   1.083   1.086   1.096   1.110   1.119
  1.130   1.136   1.149   1.162   1.171   1.193   1.201   1.210
  1.217   1.223   1.241   1.255   1.262   1.276   1.281   1.287
  1.299   1.321   1.330   1.335   1.346   1.355   1.365   1.371
  1.378   1.379   1.390   1.394   1.406   1.423   1.431   1.437
  1.442   1.451   1.468   1.474   1.474   1.497   1.501   1.504
  1.517   1.531   1.548   1.554   1.557   1.571   1.578   1.591
  1.597   1.608   1.615   1.629   1.650   1.658   1.673   1.679
  1.691   1.711   1.720   1.726   1.729   1.734   1.739   1.754
  1.755   1.769   1.770   1.773   1.784   1.790   1.795   1.800
  1.804   1.805   1.812   1.818   1.828   1.828   1.840   1.842
  1.854   1.860   1.869   1.870   1.878   1.880   1.885   1.892
  1.900   1.905   1.906   1.918   1.932   1.939   1.944   1.958
  1.965   1.971   1.976   1.983   1.986   1.990   2.010   2.023
  2.023   2.033   2.036   2.043   2.052   2.063   2.065   2.070
  2.083   2.090   2.097   2.101   2.111   2.117   2.123   2.128
  2.137   2.146   2.158   2.184   2.188   2.212   2.214   2.236
  2.239   2.247   2.261   2.272   2.277   2.280   2.285   2.292
  2.298   2.304   2.319   2.330   2.339   2.342   2.357   2.360
  2.377   2.387   2.400   2.402   2.411   2.415   2.421   2.426
  2.431   2.442   2.462   2.466   2.473   2.483   2.495   2.501
  2.509   2.526   2.535   2.560   2.570   2.577   2.591   2.595
  2.616   2.619   2.622   2.634   2.645   2.659   2.678   2.679
  2.705   2.710   2.718   2.737   2.745   2.759   2.770   2.777
  2.800   2.812   2.832   2.859   2.866   2.875   2.885   2.915
  2.942   2.949   2.970   2.985   2.995   2.999   3.020   3.044
  3.055   3.067   3.124   3.149   3.176   3.198   3.229   3.776
  3.795   3.844   3.946   3.972   4.000   4.014   4.033   4.047
  4.056   4.077   4.109   4.133   4.176   4.189   4.210   4.258
  4.269   4.279   4.312   4.325   4.342   4.375   4.406   4.414
  4.447   4.493   4.498   4.549   4.613   4.629   4.653   4.689
 --------------------------------------------------------------
 
          Ground-State Mulliken Net Atomic Charges

     Atom                 Charge (a.u.)
  ----------------------------------------
      1 N                    -0.685205
      2 C                    -0.238665
      3 C                     0.620388
      4 O                    -0.518911
      5 H                     0.165668
      6 H                     0.136688
      7 H                     0.301048
      8 H                     0.291566
      9 N                    -0.627467
     10 C                    -0.025069
     11 C                     0.611234
     12 O                    -0.531477
     13 C                    -0.345808
     14 H                     0.160362
     15 H                     0.199162
     16 C                     0.264598
     17 N                    -0.585674
     18 C                     0.178224
     19 H                     0.153289
     20 N                    -0.418673
     21 C                    -0.034416
     22 H                     0.131908
     23 H                     0.349382
     24 H                     0.339635
     25 H                     0.154297
     26 N                    -0.632946
     27 C                    -0.035335
     28 C                     0.610392
     29 O                    -0.520798
     30 H                     0.185568
     31 C                    -0.031424
     32 H                     0.164736
     33 H                     0.123351
     34 O                    -0.623135
     35 H                     0.402035
     36 H                     0.363688
     37 N                    -0.632159
     38 C                     0.019854
     39 C                     0.594013
     40 O                    -0.531236
     41 H                     0.147892
     42 H                     0.353976
     43 C                    -0.280481
     44 H                     0.189443
     45 H                     0.147149
     46 C                    -0.081643
     47 H                     0.131794
     48 C                    -0.438623
     49 H                     0.138972
     50 H                     0.157714
     51 H                     0.123757
     52 C                    -0.442413
     53 H                     0.132707
     54 H                     0.134095
     55 H                     0.149798
     56 N                    -0.619316
     57 C                    -0.198348
     58 C                     0.595128
     59 O                    -0.442089
     60 H                     0.194676
     61 H                     0.191805
     62 H                     0.353270
     63 O                    -0.565927
     64 H                     0.423970
  ----------------------------------------
  Sum of atomic charges =     0.000000

 -----------------------------------------------------------------
                    Cartesian Multipole Moments
 -----------------------------------------------------------------
    Charge (ESU x 10^10)
                 0.0000
    Dipole Moment (Debye)
         X      -1.4931      Y       6.1449      Z      -0.7236
       Tot       6.3649
    Quadrupole Moments (Debye-Ang)
        XX    -178.9060     XY       9.2091     YY    -186.1372
        XZ     -21.4061     YZ       1.8965     ZZ    -193.9187
    Octopole Moments (Debye-Ang^2)
       XXX    -201.2122    XXY     296.3744    XYY     -29.8802
       YYY     149.3588    XXZ     203.7016    XYZ     -27.7452
       YYZ     -29.5155    XZZ      94.9499    YZZ     -14.5420
       ZZZ     -22.0029
    Hexadecapole Moments (Debye-Ang^3)
      XXXX  -25537.0830   XXXY    1028.5125   XXYY   -4381.1664
      XYYY    -136.4124   YYYY   -4352.9252   XXXZ   -1574.1339
      XXYZ     470.8181   XYYZ    -157.6949   YYYZ      -0.3596
      XXZZ   -4864.1625   XYZZ      -9.8353   YYZZ    -843.1646
      XZZZ     -70.8154   YZZZ      42.4522   ZZZZ   -1029.3006
 -----------------------------------------------------------------
 Calculating analytic gradient of the SCF energy
 Gradient of SCF Energy
            1           2           3           4           5           6
    1  -0.0140061  -0.0083335   0.0083226  -0.0023324  -0.0007142   0.0087051
    2  -0.0059005  -0.0197664   0.0192230   0.0078321  -0.0033551   0.0023576
    3   0.0072856  -0.0077261   0.0145978   0.0102546   0.0082434  -0.0080681
            7           8           9          10          11          12
    1   0.0000936   0.0151030   0.0015517  -0.0092997   0.0107108  -0.0084721
    2   0.0033559   0.0107914  -0.0273154   0.0077746  -0.0123653  -0.0137841
    3  -0.0220613   0.0109483  -0.0163728   0.0080088  -0.0078245  -0.0119640
           13          14          15          16          17          18
    1  -0.0042033   0.0006739   0.0015251  -0.0178396  -0.0137611   0.0369325
    2   0.0129740   0.0012199  -0.0141786  -0.0325586  -0.0054671   0.0288990
    3   0.0035082   0.0113647  -0.0023092  -0.0565906   0.0345724  -0.0135108
           19          20          21          22          23          24
    1  -0.0013230   0.0013699  -0.0123934   0.0017113   0.0137483   0.0106792
    2  -0.0013210   0.0130690  -0.0085155   0.0012091   0.0088316   0.0133784
    3   0.0003306   0.0366522   0.0116189   0.0001400  -0.0218349   0.0078801
           25          26          27          28          29          30
    1  -0.0016486  -0.0091519  -0.0000358   0.0103558  -0.0091664  -0.0022724
    2   0.0037307   0.0186034  -0.0135859   0.0175054   0.0090146  -0.0064769
    3  -0.0081852   0.0173615  -0.0171103   0.0058435   0.0127379   0.0099516
           31          32          33          34          35          36
    1  -0.0181796   0.0009761  -0.0036040   0.0188885   0.0009120   0.0102366
    2  -0.0051398   0.0122743   0.0022717  -0.0202472   0.0164807  -0.0067404
    3   0.0110359   0.0024077  -0.0070811   0.0048404  -0.0147755  -0.0077628
           37          38          39          40          41          42
    1  -0.0089194  -0.0041743   0.0065876  -0.0007573  -0.0037477  -0.0001651
    2  -0.0307831   0.0177745  -0.0123568  -0.0055712   0.0013019   0.0125565
    3  -0.0154508   0.0190657  -0.0154275  -0.0108246  -0.0079285   0.0072346
           43          44          45          46          47          48
    1  -0.0055979   0.0057558   0.0030937   0.0009172   0.0002632  -0.0022525
    2   0.0120353  -0.0100849  -0.0028776  -0.0005921  -0.0074733   0.0058091
    3  -0.0074467  -0.0004155   0.0103346  -0.0023829   0.0047930   0.0045076
           49          50          51          52          53          54
    1  -0.0052415   0.0090398  -0.0029316   0.0060103  -0.0045625  -0.0030022
    2  -0.0077406  -0.0035085   0.0078284   0.0044862  -0.0068962   0.0044651
    3   0.0013558  -0.0007734  -0.0021694  -0.0074895  -0.0008497  -0.0047379
           55          56          57          58          59          60
    1   0.0038811  -0.0053811  -0.0021923  -0.0094764   0.0049523  -0.0046875
    2  -0.0000964   0.0087465  -0.0020737   0.0116968  -0.0070381  -0.0080417
    3   0.0095639   0.0277731  -0.0149393   0.0269143  -0.0176916   0.0016017
           61          62          63          64
    1   0.0035464   0.0096025   0.0064001  -0.0127192
    2   0.0085855  -0.0081180  -0.0007776   0.0046660
    3  -0.0024041  -0.0122011   0.0111823  -0.0076010
 Max gradient component =       5.659E-02
 RMS gradient           =       1.218E-02
 Gradient time:  CPU 280.88 s  wall 36.58 s
 Geometry Optimization Parameters
   NAtoms,    NIC,     NZ,  NCons,   NDum,   NFix, NCnnct, MaxDiis
       64     460       0       0       0       0       0       0


** GEOMETRY OPTIMIZATION IN DELOCALIZED INTERNAL COORDINATES **
   Searching for a Minimum

   Optimization Cycle:   1

                       Coordinates (Angstroms)
     ATOM                X               Y               Z
      1  N         9.2360162850    1.3166695606    0.0027360458
      2  C         7.9302864064    1.7628732510    0.4816401457
      3  C         6.8152295280    0.8891666378   -0.0398177821
      4  O         7.0708772048   -0.0489347123   -0.7825804086
      5  H         7.9199025375    1.7205918234    1.5920905644
      6  H         7.7555334053    2.8144537683    0.1641472514
      7  H         9.2809090243    1.4392492640   -1.0349797542
      8  H         9.9701774046    1.9286118503    0.4264393823
      9  N         5.5279483523    1.1646618345    0.3162062265
     10  C         4.3802874097    0.3648253956   -0.1260065290
     11  C         3.0549340882    1.0478543641    0.2476614343
     12  O         3.0682782756    2.0514219168    0.9479190602
     13  C         4.4811951884   -1.0548219067    0.5049292386
     14  H         4.3725881412   -0.9640727583    1.6078405273
     15  H         5.4749670649   -1.5003684682    0.3058570477
     16  C         3.4854489561   -2.0403308515   -0.0298897708
     17  N         3.4050883650   -2.4259663150   -1.3139764860
     18  C         2.3902399942   -3.3079129578   -1.3606380101
     19  H         2.0655948781   -3.8063564387   -2.2643701259
     20  N         1.8226420359   -3.5004407482   -0.1512951675
     21  C         2.5135991791   -2.7035094392    0.6879393767
     22  H         2.3163412670   -2.6129530204    1.7477407545
     23  H         4.0002812021   -2.1101664737   -2.1116101741
     24  H         5.3830998280    1.9941851586    0.9103772699
     25  H         4.4210221270    0.3049882348   -1.2360125226
     26  N         1.8580495973    0.5507419698   -0.1847351508
     27  C         0.5754420940    1.1550312217    0.1813874204
     28  C        -0.5972984173    0.2162033944   -0.1088919003
     29  O        -0.4144781010   -0.8157034245   -0.7400547972
     30  H         0.5768013337    1.3048255126    1.2841261433
     31  C         0.4139064538    2.5066504066   -0.5532659082
     32  H         1.2763852522    3.1687101305   -0.3288042366
     33  H         0.3879455255    2.3108403000   -1.6495099694
     34  O        -0.7566056085    3.1659087919   -0.1595675451
     35  H        -0.8321563407    3.9680885970   -0.7388055812
     36  H         1.8651741769   -0.2911077204   -0.7705775533
     37  N        -1.8438764115    0.5133765398    0.3639352185
     38  C        -3.0103081338   -0.3480081734    0.1765645707
     39  C        -4.2422024241    0.3902004249    0.6636649630
     40  O        -4.3161576180    0.7164043859    1.8415548063
     41  H        -3.1129772800   -0.5490087379   -0.9111380065
     42  H        -1.9665455924    1.3929058289    0.8866347431
     43  C        -2.8183408117   -1.6920849690    0.9435337871
     44  H        -1.8714952105   -2.1566579908    0.6035059868
     45  H        -2.6890357475   -1.4773200904    2.0271358116
     46  C        -3.8982238921   -2.7981815301    0.7783995821
     47  H        -3.5106685139   -3.6852010914    1.3283515943
     48  C        -4.0842099535   -3.2074987991   -0.6878423051
     49  H        -4.7816987493   -4.0692580849   -0.7578390178
     50  H        -3.1113578183   -3.5134547167   -1.1276691809
     51  H        -4.5058854689   -2.3719082137   -1.2844751107
     52  C        -5.2508534194   -2.4613169053    1.4207802738
     53  H        -5.9154447545   -3.3505391045    1.3812395782
     54  H        -5.7753680763   -1.6451894512    0.8922716791
     55  H        -5.1111408200   -2.1852132446    2.4873686679
     56  N        -5.2527991603    0.6954508329   -0.1968998512
     57  C        -6.4419119782    1.4048049312    0.2521055027
     58  C        -7.4509262372    1.6414256439   -0.8486976741
     59  O        -7.2485936096    1.2572841356   -1.9899760858
     60  H        -6.9374817987    0.8143311517    1.0528481517
     61  H        -6.1422871563    2.3918533276    0.6658935331
     62  H        -5.1618015978    0.4091890979   -1.1826992500
     63  O        -8.6020094816    2.2889947912   -0.5719846017
     64  H        -8.8011143661    2.6092679284    0.3190040301
   Point Group: c1    Number of degrees of freedom:   186


   Energy is  -1652.518560372


 Attempting to Generate Delocalized Internal Coordinates

186 Hessian modes will be used to form the next step
  Hessian Eigenvalues:
     0.002000    0.002000    0.002000    0.002984    0.004269    0.004570
     0.004731    0.005207    0.006768    0.006996    0.007134    0.007434
     0.007604    0.007628    0.007920    0.008290    0.009233    0.010581
     0.011152    0.011190    0.012020    0.012279    0.012510    0.012534
     0.012979    0.013144    0.015659    0.017151    0.020111    0.020149
     0.020444    0.020672    0.022337    0.022641    0.022720    0.023027
     0.023974    0.024484    0.028852    0.031353    0.039529    0.043811
     0.044813    0.045156    0.046141    0.046482    0.047669    0.049666
     0.049796    0.050044    0.050217    0.050880    0.050981    0.051699
     0.053049    0.054564    0.056259    0.057607    0.057927    0.058563
     0.064230    0.065028    0.065881    0.065972    0.066147    0.092091
     0.097440    0.098431    0.100874    0.115351    0.128376    0.130266
     0.131910    0.133382    0.138895    0.159967    0.159973    0.159998
     0.159999    0.159999    0.160000    0.160000    0.160000    0.160000
     0.160000    0.160000    0.160000    0.160000    0.160000    0.160000
     0.160000    0.160000    0.171450    0.172261    0.173319    0.173659
     0.177735    0.180686    0.184137    0.186378    0.219957    0.220000
     0.220000    0.220006    0.220007    0.220235    0.220413    0.220797
     0.220878    0.226587    0.234480    0.249930    0.249991    0.249996
     0.249997    0.249998    0.250000    0.250000    0.250000    0.250000
     0.250000    0.250000    0.268697    0.270801    0.272615    0.279224
     0.287762    0.289808    0.290914    0.294210    0.307059    0.311595
     0.313993    0.321909    0.322525    0.322984    0.323510    0.323600
     0.323659    0.323939    0.324204    0.324415    0.324499    0.324624
     0.325078    0.325087    0.325115    0.325335    0.325398    0.325773
     0.326051    0.327983    0.329064    0.331609    0.357622    0.357778
     0.360882    0.364262    0.367061    0.368882    0.375203    0.404508
     0.405119    0.407011    0.426896    0.426971    0.427113    0.434476
     0.445849    0.456372    0.490628    0.493663    0.517054    0.517618
     0.522018    0.525445    0.527097    0.538887    0.551470    0.556719
     0.560211    0.934341    0.937192    0.938255    0.939078    0.949094

 Minimum Search - Taking Simple RFO Step
 Searching for Lamda that Minimizes Along All modes
 Value Taken    Lamda =  -0.06544032
 Calculated Step too Large.  Step scaled by  0.608071
 Step Taken.  Stepsize is  0.300000

                             Maximum     Tolerance    Cnvgd?
         Gradient           0.037169      0.000300      NO
         Displacement       0.081245      0.001200      NO
         Energy change     *********      0.000001      NO


 New Cartesian Coordinates Obtained by Inverse Iteration

 Displacement from previous Coordinates is:  1.827896
 ----------------------------------------------------------------
             Standard Nuclear Orientation (Angstroms)
    I     Atom           X                Y                Z
 ----------------------------------------------------------------
    1      N       9.1342775267     1.3954830067    -0.0467405125
    2      C       7.8167090369     1.7998309788     0.4373307031
    3      C       6.7322775495     0.8836607725    -0.1015264172
    4      O       6.9985847388    -0.0298033527    -0.8772475355
    5      H       7.8164023259     1.7427413586     1.5402521146
    6      H       7.5716175786     2.8441127918     0.1531599948
    7      H       9.1756602440     1.5208309654    -1.0688865940
    8      H       9.8390896004     2.0222768098     0.3692326711
    9      N       5.4546619939     1.1402805286     0.3004505526
   10      C       4.3181201718     0.3394502098    -0.1266764596
   11      C       3.0355000649     1.0655755325     0.2992038191
   12      O       3.1080021047     2.0594187066     1.0196684568
   13      C       4.4233679321    -1.0965555752     0.4698205277
   14      H       4.3427467871    -1.0238025614     1.5670730295
   15      H       5.4219378383    -1.4986065527     0.2386364596
   16      C       3.4205175953    -2.0944768284    -0.0403181944
   17      N       3.2980237786    -2.4874549807    -1.3364705732
   18      C       2.2943742750    -3.4025526156    -1.3916870850
   19      H       1.9706846275    -3.8924329741    -2.2997682292
   20      N       1.7671754598    -3.6188381979    -0.1868468686
   21      C       2.4649036236    -2.8052841136     0.6543657801
   22      H       2.2737870704    -2.7480048509     1.7176664588
   23      H       3.8625293200    -2.1593559551    -2.1273937688
   24      H       5.2839208343     1.9452485066     0.9058270895
   25      H       4.3365953985     0.2934905737    -1.2313885320
   26      N       1.8369205956     0.5880491813    -0.1372759693
   27      C       0.5719445135     1.1916530673     0.2455475698
   28      C      -0.5634679896     0.2218236230    -0.0829488959
   29      O      -0.3432528871    -0.7882093110    -0.7464013856
   30      H       0.5766596939     1.3324817805     1.3419519472
   31      C       0.3866139783     2.5546467063    -0.4481337174
   32      H       1.2469784317     3.2017363211    -0.2072382513
   33      H       0.3638353992     2.3848811707    -1.5431895630
   34      O      -0.8102247122     3.1585454630    -0.0017715938
   35      H      -0.9360602571     3.9766807975    -0.5257686243
   36      H       1.8069755299    -0.2416415675    -0.7284428348
   37      N      -1.8016157369     0.5171071731     0.3986411682
   38      C      -2.9617931228    -0.3482768940     0.2062920106
   39      C      -4.1811816272     0.4240498977     0.6881481240
   40      O      -4.2637871813     0.7829678337     1.8599040099
   41      H      -3.0541302053    -0.5573536943    -0.8741838850
   42      H      -1.9277896462     1.3859059048     0.9199805272
   43      C      -2.7801263922    -1.6847903322     0.9757481642
   44      H      -1.8294759007    -2.1253896736     0.6390787669
   45      H      -2.6589514509    -1.4527806442     2.0483297991
   46      C      -3.8472984901    -2.8022141572     0.8130467191
   47      H      -3.4431483324    -3.6706966664     1.3665465752
   48      C      -4.0183552406    -3.2295197851    -0.6529607957
   49      H      -4.6944938122    -4.0985185038    -0.7229203476
   50      H      -3.0482059510    -3.5172823132    -1.0919903554
   51      H      -4.4521346474    -2.4177026805    -1.2611642636
   52      C      -5.2110384086    -2.4908642649     1.4514978594
   53      H      -5.8536439191    -3.3879218718     1.4169123320
   54      H      -5.7494340061    -1.6935938638     0.9199844373
   55      H      -5.0915756519    -2.2012677504     2.5086849996
   56      N      -5.1576830392     0.7182997624    -0.2136714698
   57      C      -6.3377615976     1.4522004193     0.1834570588
   58      C      -7.2764455974     1.6497000510    -0.9860231431
   59      O      -7.0316794040     1.2290235253    -2.0991369679
   60      H      -6.8691172969     0.9039876892     0.9827109393
   61      H      -6.0469838441     2.4402665112     0.5839250115
   62      H      -5.0656025235     0.4174882472    -1.1848855249
   63      O      -8.4217811191     2.3200182093    -0.7656705292
   64      H      -8.5822175950     2.6398345222     0.1348731236
 ----------------------------------------------------------------
 Molecular Point Group                 C1    NOp =  1
 Largest Abelian Subgroup              C1    NOp =  1
 Nuclear Repulsion Energy =  3471.9577040348 hartrees
 There are      125 alpha and      125 beta electrons
 Applying Cartesian multipole field
    Component          Value
    ---------          -----
     (2,0,0)        1.00000E-12
     (0,2,0)        2.00000E-11
     (0,0,2)       -3.00000E-11
 Nucleus-field energy     =     0.0000000659 hartrees
 Requested basis set is 6-31G(d)
 There are 194 shells and 557 basis functions
 A cutoff of  1.0D-11 yielded   8393 shell pairs
 There are     71014 function pairs
 Smallest overlap matrix eigenvalue = 1.19E-03
 Guess MOs from SCF MO coefficient file

 -----------------------------------------------------------------------
  General SCF calculation program by
  Eric Jon Sundstrom, Paul Horn, Yuezhi Mao, Dmitri Zuev, Alec White,
  David Stuck, Shaama M.S., Shane Yost, Joonho Lee, David Small,
  Daniel Levine, Susi Lehtola, Hugh Burton, Evgeny Epifanovsky
 -----------------------------------------------------------------------
 Exchange:     0.2000 Hartree-Fock + 0.0800 Slater + 0.7200 B88
 Correlation:  0.1900 VWN1RPA + 0.8100 LYP
 Using SG-1 standard quadrature grid
 using 8 threads for integral computing
 -------------------------------------------------------
 OpenMP Integral computing Module                
 Release: version 1.0, May 2013, Q-Chem Inc. Pittsburgh 
 -------------------------------------------------------
 -------------------------------------------------------
 OpenMP BLAS3 based DFT computing Module                
 Release: version 1.0, May 2013, Q-Chem Inc. Pittsburgh 
 -------------------------------------------------------
 A restricted SCF calculation will be
 performed using DIIS
 SCF converges when DIIS error is below 1.0e-08
 ---------------------------------------
  Cycle       Energy         DIIS error
 ---------------------------------------
    1   -1652.5306593339      5.12e-04  
    2   -1652.5473284797      1.40e-04  
    3   -1652.5467243007      2.07e-04  
    4   -1652.5479681415      4.40e-05  
    5   -1652.5480271735      1.21e-05  
    6   -1652.5480317095      3.34e-06  
    7   -1652.5480320128      1.28e-06  
    8   -1652.5480320550      6.31e-07  
    9   -1652.5480320676      1.66e-07  
   10   -1652.5480320684      5.64e-08  
   11   -1652.5480320685      2.41e-08  
   12   -1652.5480320685      9.04e-09  Convergence criterion met
 ---------------------------------------
 SCF time:   CPU 799.98s  wall 100.00s 
 SCF   energy in the final basis set =    -1652.5480320685
 Total energy in the final basis set =    -1652.5480320685
 
 --------------------------------------------------------------
 
                    Orbital Energies (a.u.)
 --------------------------------------------------------------
 
 Alpha MOs
 -- Occupied --
-19.222 -19.167 -19.159 -19.125 -19.124 -19.120 -19.107 -14.392
-14.381 -14.369 -14.364 -14.356 -14.314 -14.302 -10.349 -10.299
-10.298 -10.293 -10.281 -10.265 -10.249 -10.249 -10.246 -10.241
-10.231 -10.221 -10.210 -10.203 -10.187 -10.185 -10.178 -10.171
-10.169  -1.126  -1.051  -1.049  -1.042  -1.040  -1.036  -1.027
 -1.012  -0.939  -0.931  -0.925  -0.919  -0.877  -0.864  -0.807
 -0.797  -0.777  -0.767  -0.738  -0.729  -0.688  -0.675  -0.668
 -0.664  -0.654  -0.640  -0.610  -0.604  -0.593  -0.586  -0.582
 -0.578  -0.572  -0.555  -0.539  -0.532  -0.526  -0.515  -0.511
 -0.500  -0.494  -0.490  -0.485  -0.480  -0.467  -0.461  -0.456
 -0.455  -0.454  -0.444  -0.442  -0.439  -0.437  -0.429  -0.427
 -0.426  -0.424  -0.415  -0.407  -0.402  -0.401  -0.398  -0.398
 -0.396  -0.393  -0.389  -0.387  -0.375  -0.373  -0.371  -0.368
 -0.355  -0.348  -0.345  -0.339  -0.321  -0.319  -0.317  -0.301
 -0.291  -0.275  -0.273  -0.272  -0.265  -0.263  -0.257  -0.256
 -0.252  -0.248  -0.244  -0.231  -0.211
 -- Virtual --
 -0.014   0.006   0.008   0.020   0.031   0.031   0.036   0.052
  0.063   0.065   0.077   0.080   0.082   0.099   0.101   0.111
  0.118   0.123   0.130   0.134   0.142   0.143   0.147   0.148
  0.150   0.155   0.159   0.161   0.164   0.169   0.171   0.174
  0.177   0.180   0.181   0.185   0.188   0.196   0.200   0.202
  0.208   0.212   0.219   0.225   0.229   0.231   0.232   0.236
  0.238   0.243   0.251   0.259   0.264   0.272   0.279   0.288
  0.297   0.304   0.318   0.325   0.339   0.347   0.352   0.357
  0.367   0.395   0.403   0.419   0.435   0.439   0.458   0.486
  0.496   0.502   0.507   0.509   0.511   0.512   0.519   0.528
  0.530   0.534   0.539   0.548   0.553   0.557   0.562   0.566
  0.571   0.580   0.584   0.589   0.594   0.596   0.605   0.613
  0.622   0.625   0.635   0.636   0.644   0.650   0.653   0.655
  0.657   0.667   0.671   0.677   0.684   0.687   0.692   0.701
  0.703   0.712   0.716   0.723   0.728   0.731   0.732   0.745
  0.753   0.757   0.758   0.768   0.769   0.786   0.795   0.796
  0.802   0.804   0.808   0.809   0.811   0.814   0.819   0.820
  0.827   0.830   0.838   0.839   0.841   0.843   0.845   0.860
  0.865   0.869   0.871   0.875   0.880   0.884   0.885   0.889
  0.891   0.897   0.900   0.900   0.903   0.909   0.912   0.913
  0.915   0.921   0.923   0.925   0.928   0.940   0.942   0.950
  0.954   0.955   0.963   0.966   0.977   0.980   0.986   0.992
  0.994   0.997   1.008   1.011   1.018   1.027   1.034   1.046
  1.055   1.060   1.072   1.080   1.084   1.091   1.106   1.114
  1.127   1.133   1.146   1.156   1.168   1.192   1.199   1.208
  1.214   1.217   1.236   1.256   1.262   1.280   1.285   1.292
  1.299   1.315   1.328   1.335   1.339   1.354   1.361   1.369
  1.378   1.382   1.388   1.393   1.404   1.424   1.430   1.432
  1.444   1.455   1.472   1.477   1.482   1.496   1.497   1.504
  1.510   1.534   1.546   1.552   1.560   1.571   1.573   1.587
  1.596   1.602   1.612   1.625   1.646   1.661   1.669   1.692
  1.697   1.715   1.723   1.724   1.731   1.740   1.753   1.756
  1.759   1.762   1.769   1.773   1.781   1.788   1.792   1.798
  1.803   1.808   1.816   1.820   1.829   1.832   1.840   1.843
  1.855   1.863   1.868   1.872   1.877   1.880   1.885   1.892
  1.897   1.897   1.904   1.913   1.925   1.940   1.944   1.957
  1.962   1.970   1.974   1.982   1.986   1.990   2.009   2.018
  2.028   2.031   2.038   2.042   2.051   2.060   2.071   2.076
  2.083   2.090   2.093   2.099   2.111   2.119   2.123   2.129
  2.139   2.147   2.151   2.185   2.193   2.208   2.215   2.230
  2.238   2.248   2.260   2.268   2.278   2.288   2.290   2.295
  2.299   2.305   2.320   2.331   2.338   2.344   2.355   2.367
  2.373   2.390   2.401   2.404   2.413   2.418   2.425   2.427
  2.429   2.441   2.462   2.473   2.478   2.486   2.495   2.497
  2.499   2.528   2.533   2.557   2.572   2.580   2.596   2.598
  2.610   2.617   2.630   2.637   2.646   2.667   2.679   2.687
  2.703   2.717   2.719   2.736   2.740   2.757   2.766   2.770
  2.792   2.809   2.827   2.857   2.868   2.874   2.888   2.916
  2.940   2.949   2.967   2.986   2.993   3.002   3.016   3.042
  3.050   3.061   3.133   3.149   3.183   3.204   3.230   3.782
  3.795   3.845   3.943   3.976   4.007   4.021   4.045   4.054
  4.057   4.073   4.110   4.133   4.174   4.178   4.212   4.252
  4.266   4.282   4.309   4.320   4.331   4.380   4.414   4.422
  4.456   4.497   4.501   4.557   4.616   4.633   4.653   4.691
 --------------------------------------------------------------
 
          Ground-State Mulliken Net Atomic Charges

     Atom                 Charge (a.u.)
  ----------------------------------------
      1 N                    -0.688230
      2 C                    -0.240936
      3 C                     0.619616
      4 O                    -0.523070
      5 H                     0.166459
      6 H                     0.136426
      7 H                     0.303740
      8 H                     0.293375
      9 N                    -0.625457
     10 C                    -0.030500
     11 C                     0.617006
     12 O                    -0.539311
     13 C                    -0.347905
     14 H                     0.162434
     15 H                     0.201871
     16 C                     0.282932
     17 N                    -0.601562
     18 C                     0.196498
     19 H                     0.155739
     20 N                    -0.420131
     21 C                    -0.052860
     22 H                     0.129328
     23 H                     0.341668
     24 H                     0.345360
     25 H                     0.156606
     26 N                    -0.634871
     27 C                    -0.041746
     28 C                     0.614608
     29 O                    -0.528866
     30 H                     0.187168
     31 C                    -0.034517
     32 H                     0.168641
     33 H                     0.127814
     34 O                    -0.627039
     35 H                     0.404540
     36 H                     0.368293
     37 N                    -0.629322
     38 C                     0.009752
     39 C                     0.597734
     40 O                    -0.535384
     41 H                     0.151060
     42 H                     0.360675
     43 C                    -0.282489
     44 H                     0.188671
     45 H                     0.148125
     46 C                    -0.080704
     47 H                     0.134553
     48 C                    -0.444009
     49 H                     0.140838
     50 H                     0.159824
     51 H                     0.126076
     52 C                    -0.445340
     53 H                     0.136285
     54 H                     0.133000
     55 H                     0.151195
     56 N                    -0.618228
     57 C                    -0.207852
     58 C                     0.595556
     59 O                    -0.441608
     60 H                     0.196004
     61 H                     0.192882
     62 H                     0.356869
     63 O                    -0.559673
     64 H                     0.422393
  ----------------------------------------
  Sum of atomic charges =     0.000000

 -----------------------------------------------------------------
                    Cartesian Multipole Moments
 -----------------------------------------------------------------
    Charge (ESU x 10^10)
                 0.0000
    Dipole Moment (Debye)
         X      -2.2895      Y       6.2401      Z      -0.6711
       Tot       6.6807
    Quadrupole Moments (Debye-Ang)
        XX    -182.3824     XY       8.6292     YY    -185.4122
        XZ     -18.9057     YZ       1.4869     ZZ    -195.8636
    Octopole Moments (Debye-Ang^2)
       XXX    -235.1277    XXY     284.8870    XYY     -34.2650
       YYY     158.0061    XXZ     192.3645    XYZ     -25.7310
       YYZ     -29.7830    XZZ      94.5321    YZZ     -19.5661
       ZZZ     -17.6208
    Hexadecapole Moments (Debye-Ang^3)
      XXXX  -25048.2631   XXXY     985.8451   XXYY   -4265.7618
      XYYY    -128.7897   YYYY   -4495.5976   XXXZ   -1353.4744
      XXYZ     394.6732   XYYZ    -153.7015   YYYZ       6.9637
      XXZZ   -4798.4396   XYZZ       7.2358   YYZZ    -880.2036
      XZZZ     -93.3935   YZZZ      40.7558   ZZZZ   -1079.6112
 -----------------------------------------------------------------
 Calculating analytic gradient of the SCF energy
 Gradient of SCF Energy
            1           2           3           4           5           6
    1  -0.0059734  -0.0068836   0.0042058   0.0008808   0.0005167   0.0049487
    2  -0.0045218  -0.0099683   0.0121384   0.0007656  -0.0019145   0.0013632
    3   0.0016621  -0.0028719   0.0102079   0.0034285   0.0042313  -0.0047295
            7           8           9          10          11          12
    1   0.0001147   0.0067803  -0.0056174  -0.0043502   0.0073874  -0.0013647
    2   0.0027425   0.0054925  -0.0117885   0.0035708  -0.0065548  -0.0050651
    3  -0.0106197   0.0059923  -0.0082368   0.0057819  -0.0046199  -0.0053545
           13          14          15          16          17          18
    1  -0.0005229   0.0008950   0.0002573  -0.0045954  -0.0079583   0.0160738
    2   0.0103336   0.0011302  -0.0086808  -0.0156700  -0.0033886   0.0122469
    3   0.0043338   0.0053599  -0.0015579  -0.0313584   0.0260487  -0.0140223
           19          20          21          22          23          24
    1  -0.0016596  -0.0006952  -0.0057994   0.0017907   0.0055682   0.0075076
    2  -0.0016496   0.0050977  -0.0050464   0.0014284   0.0048482   0.0074257
    3   0.0010739   0.0177969   0.0039473  -0.0002025  -0.0102026   0.0036006
           25          26          27          28          29          30
    1  -0.0002212  -0.0113389   0.0003328   0.0081377  -0.0027679  -0.0008269
    2   0.0033568   0.0043850  -0.0060322   0.0101283   0.0025486  -0.0046021
    3  -0.0040223   0.0089130  -0.0128068   0.0044909   0.0061685   0.0052817
           31          32          33          34          35          36
    1  -0.0093399   0.0008545  -0.0009583   0.0083547  -0.0001612   0.0065073
    2  -0.0030965   0.0059562   0.0001665  -0.0100363   0.0084548  -0.0018355
    3   0.0072127   0.0013662  -0.0040221   0.0020571  -0.0072641  -0.0046266
           37          38          39          40          41          42
    1  -0.0080776   0.0000776   0.0041903  -0.0000433  -0.0019400  -0.0006879
    2  -0.0129739   0.0118060  -0.0070426  -0.0029230   0.0006014   0.0063546
    3  -0.0077201   0.0118174  -0.0099955  -0.0017630  -0.0043940   0.0035204
           43          44          45          46          47          48
    1  -0.0031483   0.0021762   0.0022790   0.0015360  -0.0003536  -0.0017748
    2   0.0081104  -0.0055863  -0.0018758  -0.0020040  -0.0038202   0.0034946
    3  -0.0057801  -0.0000233   0.0050104   0.0000182   0.0028736   0.0014548
           49          50          51          52          53          54
    1  -0.0023380   0.0044554  -0.0013772   0.0021287  -0.0025047  -0.0014858
    2  -0.0039509  -0.0020142   0.0037342   0.0032434  -0.0035424   0.0010357
    3   0.0007293  -0.0002296  -0.0009357  -0.0040541  -0.0003447  -0.0021279
           55          56          57          58          59          60
    1   0.0019462  -0.0063920  -0.0010370  -0.0060369   0.0023984  -0.0021611
    2  -0.0006346   0.0063798  -0.0009297   0.0075379  -0.0039562  -0.0045856
    3   0.0047876   0.0114700  -0.0076997   0.0160605  -0.0098845   0.0004347
           61          62          63          64
    1   0.0023587   0.0059950   0.0076432  -0.0079061
    2   0.0040885  -0.0047442  -0.0026364   0.0031046
    3  -0.0018200  -0.0054383   0.0064973  -0.0049010
 Max gradient component =       3.136E-02
 RMS gradient           =       6.630E-03
 Gradient time:  CPU 281.95 s  wall 36.73 s
 Geometry Optimization Parameters
   NAtoms,    NIC,     NZ,  NCons,   NDum,   NFix, NCnnct, MaxDiis
       64     460       0       0       0       0       0       0

 Cartesian Hessian Update
 Hessian Updated using BFGS Update


** GEOMETRY OPTIMIZATION IN DELOCALIZED INTERNAL COORDINATES **
   Searching for a Minimum

   Optimization Cycle:   2

                       Coordinates (Angstroms)
     ATOM                X               Y               Z
      1  N         9.1342775267    1.3954830067   -0.0467405125
      2  C         7.8167090369    1.7998309788    0.4373307031
      3  C         6.7322775495    0.8836607725   -0.1015264172
      4  O         6.9985847388   -0.0298033527   -0.8772475355
      5  H         7.8164023259    1.7427413586    1.5402521146
      6  H         7.5716175786    2.8441127918    0.1531599948
      7  H         9.1756602440    1.5208309654   -1.0688865940
      8  H         9.8390896004    2.0222768098    0.3692326711
      9  N         5.4546619939    1.1402805286    0.3004505526
     10  C         4.3181201718    0.3394502098   -0.1266764596
     11  C         3.0355000649    1.0655755325    0.2992038191
     12  O         3.1080021047    2.0594187066    1.0196684568
     13  C         4.4233679321   -1.0965555752    0.4698205277
     14  H         4.3427467871   -1.0238025614    1.5670730295
     15  H         5.4219378383   -1.4986065527    0.2386364596
     16  C         3.4205175953   -2.0944768284   -0.0403181944
     17  N         3.2980237786   -2.4874549807   -1.3364705732
     18  C         2.2943742750   -3.4025526156   -1.3916870850
     19  H         1.9706846275   -3.8924329741   -2.2997682292
     20  N         1.7671754598   -3.6188381979   -0.1868468686
     21  C         2.4649036236   -2.8052841136    0.6543657801
     22  H         2.2737870704   -2.7480048509    1.7176664588
     23  H         3.8625293200   -2.1593559551   -2.1273937688
     24  H         5.2839208343    1.9452485066    0.9058270895
     25  H         4.3365953985    0.2934905737   -1.2313885320
     26  N         1.8369205956    0.5880491813   -0.1372759693
     27  C         0.5719445135    1.1916530673    0.2455475698
     28  C        -0.5634679896    0.2218236230   -0.0829488959
     29  O        -0.3432528871   -0.7882093110   -0.7464013856
     30  H         0.5766596939    1.3324817805    1.3419519472
     31  C         0.3866139783    2.5546467063   -0.4481337174
     32  H         1.2469784317    3.2017363211   -0.2072382513
     33  H         0.3638353992    2.3848811707   -1.5431895630
     34  O        -0.8102247122    3.1585454630   -0.0017715938
     35  H        -0.9360602571    3.9766807975   -0.5257686243
     36  H         1.8069755299   -0.2416415675   -0.7284428348
     37  N        -1.8016157369    0.5171071731    0.3986411682
     38  C        -2.9617931228   -0.3482768940    0.2062920106
     39  C        -4.1811816272    0.4240498977    0.6881481240
     40  O        -4.2637871813    0.7829678337    1.8599040099
     41  H        -3.0541302053   -0.5573536943   -0.8741838850
     42  H        -1.9277896462    1.3859059048    0.9199805272
     43  C        -2.7801263922   -1.6847903322    0.9757481642
     44  H        -1.8294759007   -2.1253896736    0.6390787669
     45  H        -2.6589514509   -1.4527806442    2.0483297991
     46  C        -3.8472984901   -2.8022141572    0.8130467191
     47  H        -3.4431483324   -3.6706966664    1.3665465752
     48  C        -4.0183552406   -3.2295197851   -0.6529607957
     49  H        -4.6944938122   -4.0985185038   -0.7229203476
     50  H        -3.0482059510   -3.5172823132   -1.0919903554
     51  H        -4.4521346474   -2.4177026805   -1.2611642636
     52  C        -5.2110384086   -2.4908642649    1.4514978594
     53  H        -5.8536439191   -3.3879218718    1.4169123320
     54  H        -5.7494340061   -1.6935938638    0.9199844373
     55  H        -5.0915756519   -2.2012677504    2.5086849996
     56  N        -5.1576830392    0.7182997624   -0.2136714698
     57  C        -6.3377615976    1.4522004193    0.1834570588
     58  C        -7.2764455974    1.6497000510   -0.9860231431
     59  O        -7.0316794040    1.2290235253   -2.0991369679
     60  H        -6.8691172969    0.9039876892    0.9827109393
     61  H        -6.0469838441    2.4402665112    0.5839250115
     62  H        -5.0656025235    0.4174882472   -1.1848855249
     63  O        -8.4217811191    2.3200182093   -0.7656705292
     64  H        -8.5822175950    2.6398345222    0.1348731236
   Point Group: c1    Number of degrees of freedom:   186


   Energy is  -1652.548032069

 Hessian Updated using BFGS Update

173 Hessian modes will be used to form the next step
  Hessian Eigenvalues:
     0.002000    0.002011    0.002982    0.004275    0.004571    0.004731
     0.005206    0.006774    0.006993    0.007133    0.007440    0.007604
     0.007627    0.007920    0.008290    0.009232    0.010587    0.011152
     0.011210    0.012022    0.012277    0.012510    0.012546    0.012984
     0.013144    0.015658    0.017158    0.020112    0.020169    0.020455
     0.020674    0.022337    0.022641    0.022720    0.023026    0.023987
     0.024486    0.028860    0.031475    0.039517    0.043918    0.044956
     0.045192    0.046118    0.046548    0.047671    0.049695    0.049779
     0.050135    0.050217    0.050851    0.050976    0.051806    0.053180
     0.054547    0.056259    0.057604    0.057925    0.058667    0.064328
     0.064953    0.065849    0.065973    0.066161    0.092111    0.097343
     0.098282    0.100891    0.116202    0.128298    0.129112    0.131797
     0.133382    0.138680    0.150224    0.159969    0.159982    0.159998
     0.159999    0.159999    0.160000    0.160498    0.171717    0.172386
     0.173055    0.176082    0.177778    0.180703    0.184124    0.186725
     0.217491    0.219986    0.220001    0.220005    0.220082    0.220111
     0.220445    0.220824    0.221807    0.229107    0.239102    0.243438
     0.249938    0.249991    0.249996    0.249997    0.249999    0.250000
     0.268406    0.269220    0.271231    0.275503    0.281034    0.289193
     0.290204    0.291026    0.298885    0.306514    0.311171    0.313488
     0.320745    0.322168    0.322684    0.323171    0.323555    0.323606
     0.323784    0.324182    0.324450    0.324560    0.324803    0.325076
     0.325104    0.325251    0.325369    0.325707    0.325983    0.327647
     0.328911    0.330703    0.335077    0.357621    0.357773    0.361668
     0.365477    0.368441    0.369362    0.378467    0.403802    0.404925
     0.407703    0.425762    0.426930    0.427077    0.434917    0.445210
     0.456606    0.485922    0.492247    0.515423    0.517400    0.522039
     0.525197    0.526043    0.538784    0.551371    0.558115    0.566008
     0.935021    0.936643    0.938657    0.942963    0.946949

 Minimum Search - Taking Simple RFO Step
 Searching for Lamda that Minimizes Along All modes
 Value Taken    Lamda =  -0.02305902
 Calculated Step too Large.  Step scaled by  0.698529
 Step Taken.  Stepsize is  0.300000

                             Maximum     Tolerance    Cnvgd?
         Gradient           0.017691      0.000300      NO
         Displacement       0.070162      0.001200      NO
         Energy change     -0.029472      0.000001      NO


 New Cartesian Coordinates Obtained by Inverse Iteration

 Displacement from previous Coordinates is:  2.105634
 ----------------------------------------------------------------
             Standard Nuclear Orientation (Angstroms)
    I     Atom           X                Y                Z
 ----------------------------------------------------------------
    1      N       9.0886659006     1.3592860081    -0.1812725560
    2      C       7.7813844747     1.7578509976     0.3304574707
    3      C       6.6862146840     0.8309985261    -0.1950498895
    4      O       6.9109840041    -0.0619448967    -1.0076411034
    5      H       7.8077872108     1.6944297650     1.4273186632
    6      H       7.4918543791     2.7969696266     0.0770278464
    7      H       9.1071355544     1.4622051615    -1.1955512939
    8      H       9.7968196916     1.9869880899     0.2004359280
    9      N       5.4358132559     1.0940220784     0.2779141494
   10      C       4.2726703668     0.3262529346    -0.1142405817
   11      C       3.0363427953     1.1052455201     0.3681615550
   12      O       3.1524037266     2.0824563275     1.1107956923
   13      C       4.3504673622    -1.1199631394     0.4589646714
   14      H       4.3042440548    -1.0607404583     1.5526800065
   15      H       5.3399447235    -1.5095494213     0.1915989719
   16      C       3.3051113764    -2.0826029017    -0.0158454829
   17      N       3.1428974006    -2.4673345108    -1.3266342237
   18      C       2.1157692259    -3.3667325177    -1.3638686257
   19      H       1.7758105329    -3.8351213657    -2.2768749775
   20      N       1.6127893983    -3.5843540640    -0.1630788283
   21      C       2.3432933356    -2.7873890608     0.6778839812
   22      H       2.1604086235    -2.7526691076     1.7443795106
   23      H       3.6964424044    -2.1556141679    -2.1163041667
   24      H       5.2671302489     1.8775915233     0.9007647725
   25      H       4.2497897870     0.2807390707    -1.2141821787
   26      N       1.8323433086     0.6624105943    -0.0650624531
   27      C       0.5803406824     1.2592813181     0.3508861230
   28      C      -0.5313947372     0.2688130582    -0.0334418623
   29      O      -0.2857488909    -0.7020845850    -0.7489867265
   30      H       0.5927864718     1.3766721118     1.4441277917
   31      C       0.3861619665     2.6513045686    -0.2775074846
   32      H       1.2544046175     3.2696719036    -0.0157639828
   33      H       0.3431871556     2.5438607706    -1.3744592640
   34      O      -0.8065108931     3.2200288909     0.2449412514
   35      H      -0.9584433418     4.0662889465    -0.2043916658
   36      H       1.7564092369    -0.1568195467    -0.6609546916
   37      N      -1.7651200007     0.5302399536     0.4579874607
   38      C      -2.9091464249    -0.3540318307     0.2387956369
   39      C      -4.1432196443     0.4245505993     0.6928971186
   40      O      -4.2577806438     0.8214064302     1.8501936394
   41      H      -2.9729072374    -0.5714043779    -0.8363862273
   42      H      -1.9065943245     1.3808298322     0.9912861739
   43      C      -2.7302414003    -1.6766143658     1.0197458038
   44      H      -1.7624332046    -2.0880395212     0.7114061889
   45      H      -2.6502284469    -1.4252142764     2.0860101917
   46      C      -3.7807859995    -2.7969274631     0.8282781080
   47      H      -3.3822059397    -3.6521521634     1.3955847173
   48      C      -3.9000039554    -3.2386590290    -0.6398873652
   49      H      -4.5621712404    -4.1098952859    -0.7280062603
   50      H      -2.9206214902    -3.5154092296    -1.0508159238
   51      H      -4.3218495557    -2.4432792442    -1.2697634272
   52      C      -5.1643153717    -2.4861645598     1.4240653713
   53      H      -5.8003565825    -3.3807517332     1.3794868292
   54      H      -5.6849393372    -1.6950359164     0.8709368695
   55      H      -5.0855871360    -2.1795673357     2.4745112979
   56      N      -5.0901565062     0.6782438580    -0.2495412434
   57      C      -6.2874784180     1.4080317220     0.0839345436
   58      C      -7.1660177592     1.5417885591    -1.1473127216
   59      O      -6.8680524536     1.0889141951    -2.2283767693
   60      H      -6.8450950876     0.8921505221     0.8808014734
   61      H      -6.0340996484     2.4083992715     0.4671358568
   62      H      -4.9870417211     0.3606749321    -1.2070793177
   63      O      -8.3246813996     2.2063996688    -0.9821434095
   64      H      -8.4516411315     2.5196248065    -0.0717510495
 ----------------------------------------------------------------
 Molecular Point Group                 C1    NOp =  1
 Largest Abelian Subgroup              C1    NOp =  1
 Nuclear Repulsion Energy =  3487.7159146426 hartrees
 There are      125 alpha and      125 beta electrons
 Applying Cartesian multipole field
    Component          Value
    ---------          -----
     (2,0,0)        1.00000E-12
     (0,2,0)        2.00000E-11
     (0,0,2)       -3.00000E-11
 Nucleus-field energy     =     0.0000000635 hartrees
 Requested basis set is 6-31G(d)
 There are 194 shells and 557 basis functions
 A cutoff of  1.0D-11 yielded   8456 shell pairs
 There are     71276 function pairs
 Smallest overlap matrix eigenvalue = 1.18E-03
 Guess MOs from SCF MO coefficient file

 -----------------------------------------------------------------------
  General SCF calculation program by
  Eric Jon Sundstrom, Paul Horn, Yuezhi Mao, Dmitri Zuev, Alec White,
  David Stuck, Shaama M.S., Shane Yost, Joonho Lee, David Small,
  Daniel Levine, Susi Lehtola, Hugh Burton, Evgeny Epifanovsky
 -----------------------------------------------------------------------
 Exchange:     0.2000 Hartree-Fock + 0.0800 Slater + 0.7200 B88
 Correlation:  0.1900 VWN1RPA + 0.8100 LYP
 Using SG-1 standard quadrature grid
 using 8 threads for integral computing
 -------------------------------------------------------
 OpenMP Integral computing Module                
 Release: version 1.0, May 2013, Q-Chem Inc. Pittsburgh 
 -------------------------------------------------------
 -------------------------------------------------------
 OpenMP BLAS3 based DFT computing Module                
 Release: version 1.0, May 2013, Q-Chem Inc. Pittsburgh 
 -------------------------------------------------------
 A restricted SCF calculation will be
 performed using DIIS
 SCF converges when DIIS error is below 1.0e-08
 ---------------------------------------
  Cycle       Energy         DIIS error
 ---------------------------------------
    1   -1652.5376063982      5.69e-04  
    2   -1652.5586225455      1.19e-04  
    3   -1652.5580947239      1.88e-04  
    4   -1652.5591313296      3.55e-05  
    5   -1652.5591677605      1.23e-05  
    6   -1652.5591724530      2.82e-06  
    7   -1652.5591726624      1.22e-06  
    8   -1652.5591727049      4.63e-07  
    9   -1652.5591727114      1.42e-07  
   10   -1652.5591727120      5.03e-08  
   11   -1652.5591727121      1.71e-08  
   12   -1652.5591727121      6.99e-09  Convergence criterion met
 ---------------------------------------
 SCF time:   CPU 810.33s  wall 101.00s 
 SCF   energy in the final basis set =    -1652.5591727121
 Total energy in the final basis set =    -1652.5591727121
 
 --------------------------------------------------------------
 
                    Orbital Energies (a.u.)
 --------------------------------------------------------------
 
 Alpha MOs
 -- Occupied --
-19.225 -19.167 -19.163 -19.127 -19.126 -19.123 -19.109 -14.388
-14.381 -14.366 -14.365 -14.354 -14.312 -14.302 -10.350 -10.300
-10.298 -10.295 -10.282 -10.265 -10.248 -10.245 -10.245 -10.240
-10.231 -10.220 -10.212 -10.201 -10.188 -10.187 -10.178 -10.170
-10.170  -1.130  -1.053  -1.050  -1.045  -1.041  -1.037  -1.027
 -1.008  -0.943  -0.933  -0.928  -0.921  -0.878  -0.864  -0.810
 -0.798  -0.778  -0.767  -0.738  -0.730  -0.689  -0.678  -0.670
 -0.665  -0.651  -0.639  -0.610  -0.609  -0.596  -0.585  -0.584
 -0.578  -0.576  -0.557  -0.541  -0.533  -0.526  -0.516  -0.512
 -0.503  -0.494  -0.490  -0.486  -0.481  -0.466  -0.461  -0.458
 -0.456  -0.453  -0.444  -0.443  -0.439  -0.438  -0.429  -0.428
 -0.427  -0.427  -0.415  -0.410  -0.406  -0.401  -0.400  -0.399
 -0.396  -0.395  -0.390  -0.387  -0.376  -0.373  -0.372  -0.369
 -0.357  -0.350  -0.345  -0.342  -0.323  -0.321  -0.320  -0.304
 -0.293  -0.275  -0.274  -0.273  -0.266  -0.265  -0.261  -0.258
 -0.254  -0.249  -0.245  -0.232  -0.212
 -- Virtual --
 -0.016   0.004   0.008   0.020   0.029   0.032   0.036   0.053
  0.065   0.068   0.078   0.083   0.083   0.099   0.104   0.115
  0.121   0.126   0.132   0.135   0.143   0.145   0.149   0.151
  0.154   0.159   0.161   0.163   0.164   0.171   0.172   0.174
  0.179   0.181   0.183   0.186   0.190   0.195   0.199   0.200
  0.208   0.213   0.219   0.224   0.229   0.232   0.233   0.235
  0.239   0.242   0.250   0.257   0.262   0.272   0.280   0.289
  0.298   0.300   0.322   0.326   0.339   0.346   0.350   0.356
  0.368   0.395   0.398   0.418   0.433   0.440   0.456   0.485
  0.494   0.501   0.504   0.507   0.508   0.509   0.518   0.525
  0.529   0.534   0.538   0.549   0.554   0.559   0.560   0.565
  0.571   0.579   0.584   0.589   0.592   0.595   0.606   0.615
  0.622   0.626   0.635   0.636   0.644   0.651   0.654   0.656
  0.659   0.666   0.670   0.680   0.686   0.688   0.694   0.698
  0.703   0.712   0.717   0.723   0.728   0.732   0.734   0.743
  0.750   0.754   0.759   0.769   0.770   0.786   0.796   0.797
  0.802   0.804   0.807   0.810   0.811   0.817   0.819   0.821
  0.827   0.829   0.839   0.841   0.841   0.847   0.849   0.863
  0.866   0.871   0.872   0.877   0.879   0.887   0.888   0.892
  0.895   0.901   0.903   0.906   0.907   0.908   0.913   0.917
  0.919   0.924   0.925   0.928   0.931   0.943   0.947   0.951
  0.955   0.957   0.967   0.969   0.980   0.983   0.991   0.993
  0.996   1.001   1.011   1.014   1.019   1.029   1.035   1.046
  1.057   1.063   1.076   1.081   1.086   1.091   1.108   1.114
  1.127   1.135   1.147   1.152   1.169   1.189   1.198   1.205
  1.212   1.217   1.228   1.256   1.263   1.282   1.285   1.294
  1.300   1.311   1.330   1.334   1.337   1.355   1.364   1.366
  1.379   1.383   1.387   1.393   1.408   1.422   1.429   1.430
  1.446   1.457   1.473   1.479   1.485   1.495   1.497   1.508
  1.514   1.535   1.544   1.552   1.561   1.570   1.575   1.584
  1.594   1.601   1.608   1.622   1.645   1.658   1.666   1.691
  1.705   1.713   1.720   1.721   1.730   1.741   1.754   1.755
  1.757   1.761   1.770   1.773   1.779   1.784   1.787   1.796
  1.802   1.807   1.818   1.822   1.833   1.836   1.841   1.849
  1.859   1.864   1.866   1.873   1.876   1.879   1.884   1.891
  1.895   1.898   1.907   1.910   1.927   1.941   1.944   1.955
  1.966   1.968   1.973   1.983   1.991   1.994   2.009   2.016
  2.029   2.035   2.036   2.040   2.048   2.059   2.070   2.077
  2.083   2.087   2.089   2.099   2.116   2.119   2.126   2.132
  2.141   2.148   2.152   2.189   2.198   2.208   2.216   2.224
  2.235   2.254   2.259   2.272   2.281   2.293   2.295   2.302
  2.304   2.306   2.319   2.333   2.339   2.349   2.352   2.369
  2.374   2.393   2.401   2.404   2.412   2.418   2.425   2.429
  2.432   2.443   2.461   2.478   2.484   2.493   2.496   2.499
  2.501   2.530   2.533   2.553   2.568   2.586   2.600   2.603
  2.608   2.618   2.634   2.640   2.650   2.673   2.678   2.695
  2.703   2.719   2.721   2.731   2.736   2.756   2.764   2.765
  2.792   2.810   2.822   2.857   2.866   2.874   2.891   2.919
  2.941   2.951   2.966   2.989   2.994   3.004   3.015   3.040
  3.045   3.060   3.135   3.154   3.187   3.207   3.232   3.786
  3.793   3.844   3.939   3.979   4.011   4.026   4.051   4.056
  4.061   4.073   4.115   4.139   4.176   4.178   4.214   4.251
  4.264   4.283   4.304   4.319   4.331   4.383   4.418   4.429
  4.466   4.500   4.503   4.564   4.620   4.640   4.657   4.694
 --------------------------------------------------------------
 
          Ground-State Mulliken Net Atomic Charges

     Atom                 Charge (a.u.)
  ----------------------------------------
      1 N                    -0.692978
      2 C                    -0.239371
      3 C                     0.618382
      4 O                    -0.525856
      5 H                     0.166696
      6 H                     0.136357
      7 H                     0.306287
      8 H                     0.295463
      9 N                    -0.623950
     10 C                    -0.033649
     11 C                     0.615861
     12 O                    -0.544893
     13 C                    -0.350387
     14 H                     0.162709
     15 H                     0.201363
     16 C                     0.287928
     17 N                    -0.606052
     18 C                     0.210135
     19 H                     0.154583
     20 N                    -0.420740
     21 C                    -0.061253
     22 H                     0.129182
     23 H                     0.339748
     24 H                     0.347480
     25 H                     0.157400
     26 N                    -0.634960
     27 C                    -0.044371
     28 C                     0.615742
     29 O                    -0.533910
     30 H                     0.187789
     31 C                    -0.037254
     32 H                     0.171946
     33 H                     0.130843
     34 O                    -0.629884
     35 H                     0.405669
     36 H                     0.373392
     37 N                    -0.628003
     38 C                     0.001356
     39 C                     0.598517
     40 O                    -0.536460
     41 H                     0.155530
     42 H                     0.364360
     43 C                    -0.282456
     44 H                     0.188012
     45 H                     0.148908
     46 C                    -0.079994
     47 H                     0.136434
     48 C                    -0.448216
     49 H                     0.142303
     50 H                     0.162646
     51 H                     0.127114
     52 C                    -0.449084
     53 H                     0.138629
     54 H                     0.133747
     55 H                     0.152499
     56 N                    -0.616493
     57 C                    -0.216833
     58 C                     0.596295
     59 O                    -0.439349
     60 H                     0.196443
     61 H                     0.193905
     62 H                     0.359187
     63 O                    -0.555753
     64 H                     0.421311
  ----------------------------------------
  Sum of atomic charges =    -0.000000

 -----------------------------------------------------------------
                    Cartesian Multipole Moments
 -----------------------------------------------------------------
    Charge (ESU x 10^10)
                -0.0000
    Dipole Moment (Debye)
         X      -2.7129      Y       6.0436      Z      -0.5581
       Tot       6.6480
    Quadrupole Moments (Debye-Ang)
        XX    -183.1842     XY       8.1182     YY    -184.6872
        XZ     -16.8014     YZ       0.4750     ZZ    -198.1420
    Octopole Moments (Debye-Ang^2)
       XXX    -234.7194    XXY     274.0083    XYY     -35.4586
       YYY     157.5924    XXZ     180.0644    XYZ     -24.0649
       YYZ     -30.9158    XZZ      94.7853    YZZ     -23.3755
       ZZZ     -12.8928
    Hexadecapole Moments (Debye-Ang^3)
      XXXX  -24400.2471   XXXY     920.5962   XXYY   -4218.2294
      XYYY    -194.3731   YYYY   -4421.7598   XXXZ   -1215.3300
      XXYZ     282.2891   XYYZ    -142.3572   YYYZ       6.7777
      XXZZ   -4776.2601   XYZZ      -0.0100   YYZZ    -895.4932
      XZZZ    -134.9495   YZZZ      33.0457   ZZZZ   -1136.4174
 -----------------------------------------------------------------
 Calculating analytic gradient of the SCF energy
 Gradient of SCF Energy
            1           2           3           4           5           6
[...]
     0.238702    0.243926    0.247923    0.249838    0.250218    0.251115
     0.251310    0.254745    0.258367    0.259463    0.267179    0.269615
     0.271016    0.275485    0.279850    0.287922    0.290892    0.295744
     0.301712    0.305710    0.311399    0.312069    0.313814    0.321634
     0.322588    0.322827    0.323112    0.323519    0.323711    0.324198
     0.324496    0.324607    0.324744    0.324978    0.325149    0.325189
     0.325591    0.325646    0.325742    0.326215    0.328510    0.329073
     0.332235    0.336160    0.352988    0.357677    0.357839    0.362962
     0.365727    0.370409    0.371399    0.381395    0.404429    0.405288
     0.415551    0.426894    0.428023    0.431900    0.440730    0.448331
     0.454604    0.475450    0.490529    0.494833    0.513268    0.518019
     0.519817    0.525587    0.527594    0.538862    0.549589    0.556895
     0.576076    0.933660    0.935497    0.940143    0.946402    0.947493

 Minimum Search - Taking Simple RFO Step
 Searching for Lamda that Minimizes Along All modes
 Value Taken    Lamda =  -0.00000486
 Step Taken.  Stepsize is  0.026107

                             Maximum     Tolerance    Cnvgd?
         Gradient           0.000281      0.000300     YES
         Displacement       0.007992      0.001200      NO
         Energy change      0.000000      0.000001     YES

 Final energy is   -1652.57066806079     


 ******************************
 **  OPTIMIZATION CONVERGED  **
 ******************************

                       Coordinates (Angstroms)
     ATOM                X               Y               Z
      1  N         8.8899502146    1.0337618648   -0.8600915890
      2  C         7.6861591353    1.7592348283   -0.4734832070
      3  C         6.4655150161    0.8900072037   -0.7765722178
      4  O         6.4433677710    0.1309350066   -1.7447756980
      5  H         7.7198218542    2.0108130903    0.5949307636
      6  H         7.5253934631    2.7112083334   -1.0156813201
      7  H         8.6791807212    0.5347665362   -1.7239282191
      8  H         9.6459262666    1.6845156944   -1.0573043388
      9  N         5.3995932335    1.0548169386    0.0478818122
     10  C         4.1519124054    0.3458463865   -0.1518805737
     11  C         3.0591527780    1.1160602104    0.5946107150
     12  O         3.3054172451    1.6754002919    1.6630001390
     13  C         4.2465522666   -1.1143335290    0.4034111393
     14  H         4.4910345072   -1.0487739952    1.4686057514
     15  H         5.1001415421   -1.5827700185   -0.1004476461
     16  C         3.0050540714   -1.9307640943    0.2486969055
     17  N         2.5512642277   -2.4114447420   -0.9704767737
     18  C         1.3755649805   -3.0701168707   -0.7438180991
     19  H         0.8130355180   -3.5367981345   -1.5409918935
     20  N         1.0429125350   -3.0506663368    0.5280928959
     21  C         2.0496145778   -2.3428837456    1.1495434821
     22  H         2.0403456366   -2.1717412408    2.2184102901
     23  H         3.0256541049   -2.3210008895   -1.8582675456
     24  H         5.4497385177    1.6198417539    0.8879938366
     25  H         3.9496499429    0.3097948634   -1.2273597674
     26  N         1.8318423778    1.0948317018    0.0197299275
     27  C         0.6261113266    1.3455933178    0.7878487608
     28  C        -0.4866526645    0.5092054679    0.1160380774
     29  O        -0.2647859008   -0.1059964874   -0.9297837112
     30  H         0.7700531600    0.9927602804    1.8170875751
     31  C         0.2919202572    2.8414885786    0.8825069057
     32  H         1.1948769386    3.3698958421    1.2116926138
     33  H        -0.0072682296    3.2272719974   -0.1035549578
     34  O        -0.7587152673    2.9632780430    1.8407342475
     35  H        -1.0572798206    3.8838351753    1.8629237497
     36  H         1.6540015413    0.4883823209   -0.7788898841
     37  N        -1.6688254997    0.4888526697    0.7645949795
     38  C        -2.7630032520   -0.3962159288    0.3636179382
     39  C        -4.0527554081    0.4030373206    0.5687981150
     40  O        -4.3483361883    0.8738782218    1.6644753061
     41  H        -2.6024952577   -0.6282909987   -0.6918469140
     42  H        -1.8051586245    1.0983364749    1.5649496478
     43  C        -2.7159375376   -1.6894595225    1.2142573133
     44  H        -1.6759551208   -2.0365123505    1.1812438678
     45  H        -2.9328946451   -1.4040964617    2.2515535637
     46  C        -3.6217343961   -2.8723321408    0.8033225533
     47  H        -3.3492118624   -3.6779804455    1.5005435090
     48  C        -3.3099275035   -3.3834451034   -0.6119400512
     49  H        -3.8624889276   -4.3066371005   -0.8232689421
     50  H        -2.2405921223   -3.5938152708   -0.7269342790
     51  H        -3.5926232265   -2.6545655495   -1.3825376296
     52  C        -5.1257549012   -2.6140483272    0.9897259059
     53  H        -5.6905307384   -3.5494930766    0.8981758481
     54  H        -5.5182340074   -1.9255087394    0.2323253088
     55  H        -5.3399719493   -2.1861490620    1.9758451889
     56  N        -4.8331631585    0.5850736527   -0.5289315828
     57  C        -6.0696414034    1.3201990569   -0.4438842323
     58  C        -6.6948060301    1.4151177044   -1.8306261404
     59  O        -6.1948657965    0.9409623335   -2.8205365111
     60  H        -6.7713146755    0.8296569712    0.2469398600
     61  H        -5.8971795738    2.3292178967   -0.0421091654
     62  H        -4.5769263577    0.2411527943   -1.4469279422
     63  O        -7.8721080306    2.0760193618   -1.8945537468
     64  H        -8.1386820234    2.3893460425   -1.0134840018

Z-matrix Print:
$molecule
0 1
O 
C  1 1.233467
N  2 1.348545 1 123.912178
H  3 1.015197 2 119.197196 1 -173.549593 0
C  3 1.463337 2 122.196561 1 7.178229 0
H  5 1.092533 3 106.459924 2 -24.037070 0
C  5 1.531132 3 106.105618 2 -142.753368 0
O  7 1.228645 5 121.479464 3 -57.426973 0
N  7 1.359111 5 116.446635 3 121.238733 0
H  9 1.013240 7 122.757768 5 -1.785090 0
C  9 1.441014 7 120.888000 5 179.860669 0
H  11 1.099675 9 110.798484 7 56.350538 0
H  11 1.100098 9 110.908725 7 -61.388879 0
C  11 1.524104 9 109.270893 7 177.525383 0
O  14 1.206104 11 123.522925 9 -0.390661 0
O  14 1.351635 11 115.516134 9 179.559741 0
H  16 0.972378 14 110.700903 11 -0.313549 0
C  2 1.545677 1 120.591181 3 178.577860 0
H  18 1.097517 2 109.151015 1 -123.113448 0
N  18 1.451439 2 105.934901 1 -5.440442 0
H  20 1.018431 18 111.888884 2 2.893881 0
C  20 1.355444 18 121.669960 2 -148.870637 0
O  22 1.230839 20 123.809384 18 -20.166327 0
C  22 1.531209 20 115.565740 18 157.865845 0
H  24 1.094927 22 111.320746 20 28.102521 0
N  24 1.448879 22 107.530013 20 146.328891 0
H  26 1.013684 24 115.442947 22 25.295317 0
C  26 1.357599 24 122.207696 22 -159.741842 0
O  28 1.230487 26 122.588324 24 0.017675 0
C  28 1.528853 26 115.941692 24 177.130286 0
H  30 1.098150 28 110.340752 26 27.683126 0
H  30 1.107284 28 106.010219 26 -87.237915 0
N  30 1.457700 28 108.892858 26 148.863135 0
H  33 1.016796 30 110.298139 28 155.379892 0
H  33 1.019624 30 107.310555 28 38.430817 0
C  18 1.535691 2 113.404268 1 118.346431 0
H  36 1.096772 18 107.977250 2 -170.622877 0
H  36 1.100300 18 110.210164 2 -51.784506 0
O  36 1.427189 18 106.541421 2 69.710109 0
H  39 0.968018 36 108.880410 18 -174.414245 0
C  5 1.548639 3 109.380901 2 95.269344 0
H  41 1.096859 5 106.051968 3 -48.466722 0
H  41 1.097491 5 107.218335 3 65.987838 0
C  41 1.545485 5 118.378108 3 -169.583209 0
H  44 1.099752 41 104.293218 5 175.689753 0
C  44 1.536694 41 112.366351 5 60.324987 0
H  46 1.095882 44 111.006991 41 51.833286 0
H  46 1.096480 44 110.811280 41 171.904160 0
H  46 1.097726 44 111.926728 41 -68.622416 0
C  44 1.537379 41 114.365215 5 -68.055865 0
H  50 1.096092 44 111.460818 41 -47.348461 0
H  50 1.096258 44 111.838928 41 73.464842 0
H  50 1.096545 44 110.513706 41 -167.338547 0
C  24 1.565066 22 109.845306 20 -92.980636 0
H  54 1.094856 24 107.627558 22 -60.025745 0
H  54 1.096322 24 106.419170 22 -174.895342 0
C  54 1.493925 24 115.016456 22 61.152795 0
C  57 1.376311 54 132.280589 24 -106.029039 0
H  58 1.082521 57 127.220580 54 -2.743909 0
N  58 1.378625 57 111.444739 54 177.792532 0
C  60 1.314836 58 105.005314 57 -0.151840 0
H  61 1.081534 60 126.001500 58 -179.667896 0
N  61 1.366562 60 111.776024 58 0.176370 0
H  63 1.010643 61 126.346618 60 177.625745 0
$end

 
 --------------------------------------------------------------
 
                    Orbital Energies (a.u.)
 --------------------------------------------------------------
 
 Alpha MOs
 -- Occupied --
-19.224 -19.168 -19.164 -19.127 -19.126 -19.125 -19.116 -14.389
-14.379 -14.364 -14.363 -14.363 -14.309 -14.307 -10.349 -10.298
-10.296 -10.296 -10.288 -10.264 -10.249 -10.244 -10.242 -10.236
-10.236 -10.218 -10.218 -10.206 -10.193 -10.188 -10.179 -10.170
-10.170  -1.129  -1.052  -1.050  -1.046  -1.041  -1.037  -1.033
 -1.009  -0.942  -0.933  -0.928  -0.928  -0.876  -0.867  -0.809
 -0.800  -0.778  -0.768  -0.739  -0.730  -0.690  -0.679  -0.671
 -0.663  -0.647  -0.636  -0.612  -0.610  -0.597  -0.589  -0.585
 -0.581  -0.576  -0.560  -0.542  -0.534  -0.529  -0.516  -0.510
 -0.502  -0.497  -0.486  -0.482  -0.477  -0.470  -0.464  -0.458
 -0.458  -0.450  -0.446  -0.443  -0.436  -0.435  -0.431  -0.430
 -0.429  -0.426  -0.417  -0.410  -0.408  -0.404  -0.402  -0.401
 -0.395  -0.394  -0.386  -0.383  -0.377  -0.376  -0.372  -0.368
 -0.357  -0.356  -0.347  -0.343  -0.325  -0.322  -0.319  -0.305
 -0.294  -0.277  -0.274  -0.273  -0.271  -0.270  -0.264  -0.262
 -0.258  -0.255  -0.249  -0.229  -0.218
 -- Virtual --
 -0.015   0.006   0.008   0.018   0.028   0.030   0.033   0.055
  0.063   0.068   0.074   0.087   0.090   0.097   0.104   0.112
  0.119   0.124   0.131   0.140   0.142   0.144   0.149   0.151
  0.155   0.159   0.160   0.164   0.168   0.168   0.171   0.173
  0.177   0.183   0.185   0.190   0.192   0.197   0.201   0.205
  0.208   0.213   0.217   0.223   0.229   0.233   0.237   0.241
  0.242   0.245   0.251   0.254   0.258   0.270   0.279   0.286
  0.291   0.297   0.307   0.322   0.338   0.344   0.346   0.361
  0.370   0.391   0.395   0.415   0.428   0.433   0.445   0.468
  0.491   0.494   0.502   0.506   0.508   0.509   0.516   0.522
  0.529   0.535   0.540   0.547   0.556   0.557   0.559   0.563
  0.573   0.575   0.577   0.580   0.588   0.602   0.604   0.614
  0.618   0.623   0.632   0.636   0.640   0.645   0.654   0.655
  0.666   0.670   0.675   0.679   0.685   0.690   0.693   0.696
  0.704   0.708   0.719   0.724   0.726   0.731   0.737   0.743
  0.747   0.754   0.762   0.765   0.774   0.787   0.790   0.795
  0.798   0.801   0.804   0.807   0.810   0.815   0.817   0.818
  0.824   0.828   0.830   0.836   0.840   0.848   0.858   0.861
  0.864   0.867   0.874   0.876   0.878   0.881   0.884   0.891
  0.894   0.899   0.901   0.903   0.907   0.907   0.914   0.916
  0.918   0.921   0.922   0.930   0.933   0.944   0.945   0.949
  0.954   0.959   0.965   0.970   0.978   0.982   0.998   0.999
  1.003   1.009   1.013   1.021   1.036   1.043   1.046   1.052
  1.056   1.070   1.081   1.086   1.099   1.102   1.115   1.120
  1.124   1.131   1.146   1.155   1.159   1.167   1.185   1.196
  1.204   1.214   1.221   1.245   1.263   1.275   1.285   1.295
  1.301   1.306   1.317   1.325   1.339   1.353   1.357   1.366
  1.380   1.384   1.385   1.392   1.397   1.414   1.428   1.436
  1.448   1.455   1.469   1.472   1.487   1.498   1.507   1.514
  1.522   1.526   1.546   1.552   1.566   1.570   1.572   1.588
  1.592   1.600   1.610   1.619   1.635   1.650   1.666   1.684
  1.701   1.705   1.712   1.719   1.728   1.737   1.747   1.749
  1.751   1.758   1.765   1.770   1.773   1.778   1.783   1.793
  1.805   1.811   1.815   1.817   1.828   1.841   1.843   1.844
  1.857   1.863   1.866   1.871   1.875   1.879   1.886   1.893
  1.898   1.908   1.921   1.928   1.929   1.937   1.942   1.947
  1.965   1.969   1.975   1.986   1.988   2.000   2.008   2.018
  2.028   2.032   2.039   2.048   2.059   2.065   2.072   2.078
  2.081   2.085   2.088   2.110   2.113   2.121   2.123   2.139
  2.144   2.151   2.155   2.177   2.190   2.197   2.213   2.221
  2.231   2.247   2.253   2.258   2.268   2.284   2.289   2.299
  2.306   2.321   2.328   2.338   2.346   2.348   2.359   2.369
  2.381   2.385   2.397   2.401   2.410   2.412   2.422   2.423
  2.427   2.445   2.465   2.469   2.488   2.491   2.499   2.505
  2.514   2.524   2.540   2.553   2.571   2.572   2.603   2.605
  2.616   2.629   2.634   2.644   2.649   2.666   2.684   2.696
  2.707   2.716   2.724   2.729   2.747   2.753   2.766   2.779
  2.785   2.795   2.811   2.832   2.856   2.870   2.893   2.918
  2.951   2.959   2.963   2.987   2.997   3.004   3.014   3.025
  3.034   3.056   3.124   3.143   3.178   3.190   3.205   3.786
  3.801   3.841   3.933   3.986   3.994   4.027   4.062   4.067
  4.085   4.095   4.122   4.153   4.185   4.215   4.221   4.253
  4.261   4.265   4.301   4.324   4.326   4.360   4.416   4.448
  4.495   4.502   4.512   4.561   4.606   4.658   4.693   4.703
 --------------------------------------------------------------
 
          Ground-State Mulliken Net Atomic Charges

     Atom                 Charge (a.u.)
  ----------------------------------------
      1 N                    -0.720592
      2 C                    -0.211614
      3 C                     0.615151
      4 O                    -0.539567
      5 H                     0.146833
      6 H                     0.146358
      7 H                     0.320054
      8 H                     0.295406
      9 N                    -0.611694
     10 C                    -0.031409
     11 C                     0.612496
     12 O                    -0.544870
     13 C                    -0.356515
     14 H                     0.172626
     15 H                     0.185599
     16 C                     0.311774
     17 N                    -0.609810
     18 C                     0.228932
     19 H                     0.157632
     20 N                    -0.433445
     21 C                    -0.082229
     22 H                     0.135268
     23 H                     0.339336
     24 H                     0.346815
     25 H                     0.162241
     26 N                    -0.617549
     27 C                    -0.056939
     28 C                     0.614825
     29 O                    -0.546682
     30 H                     0.192843
     31 C                    -0.034558
     32 H                     0.167812
     33 H                     0.135473
     34 O                    -0.627165
     35 H                     0.407288
     36 H                     0.362321
     37 N                    -0.614261
     38 C                    -0.048498
     39 C                     0.627973
     40 O                    -0.541433
     41 H                     0.172018
     42 H                     0.372284
     43 C                    -0.281318
     44 H                     0.183613
     45 H                     0.146866
     46 C                    -0.072792
     47 H                     0.136563
     48 C                    -0.451404
     49 H                     0.141676
     50 H                     0.161808
     51 H                     0.130288
     52 C                    -0.456051
     53 H                     0.141536
     54 H                     0.134160
     55 H                     0.151631
     56 N                    -0.619923
     57 C                    -0.219573
     58 C                     0.596896
     59 O                    -0.436030
     60 H                     0.194117
     61 H                     0.194145
     62 H                     0.360287
     63 O                    -0.557404
     64 H                     0.420381
  ----------------------------------------
  Sum of atomic charges =     0.000000

 -----------------------------------------------------------------
                    Cartesian Multipole Moments
 -----------------------------------------------------------------
    Charge (ESU x 10^10)
                 0.0000
    Dipole Moment (Debye)
         X      -3.0842      Y       4.3469      Z      -0.3393
       Tot       5.3407
    Quadrupole Moments (Debye-Ang)
        XX    -180.8501     XY       0.0188     YY    -176.3252
        XZ     -16.4149     YZ       6.0011     ZZ    -210.1669
    Octopole Moments (Debye-Ang^2)
       XXX    -280.3514    XXY     200.1515    XYY     -30.6133
       YYY     122.3677    XXZ      73.8428    XYZ     -26.4745
       YYZ     -16.5979    XZZ      88.2053    YZZ     -29.1821
       ZZZ      15.4010
    Hexadecapole Moments (Debye-Ang^3)
      XXXX  -21763.7544   XXXY      57.2100   XXYY   -3931.2619
      XYYY    -441.5691   YYYY   -3932.9746   XXXZ   -1255.8220
      XXYZ      26.1547   XYYZ    -160.4329   YYYZ     223.3104
      XXZZ   -4791.4278   XYZZ     -33.9535   YYZZ    -947.3330
      XZZZ    -317.3433   YZZZ      82.4939   ZZZZ   -1768.6414
 -----------------------------------------------------------------
Archival summary:
1\1\cub-0-8.local\OPT\ProcedureUnspecified\6-31G*\771931\c295_kri\ThuNov102:11:142018ThuNov102:11:142018\0\\#,OPT,ProcedureUnspecified,6-31G*,\\0,1\O\C,1,1.23347\N,2,1.34854,1,123.912\H,3,1.0152,2,119.197,1,-173.55,0\C,3,1.46334,2,122.197,1,7.17823,0\H,5,1.09253,3,106.46,2,-24.0371,0\C,5,1.53113,3,106.106,2,-142.753,0\O,7,1.22864,5,121.479,3,-57.427,0\N,7,1.35911,5,116.447,3,121.239,0\H,9,1.01324,7,122.758,5,-1.78509,0\C,9,1.44101,7,120.888,5,179.861,0\H,11,1.09968,9,110.798,7,56.3505,0\H,11,1.1001,9,110.909,7,-61.3889,0\C,11,1.5241,9,109.271,7,177.525,0\O,14,1.2061,11,123.523,9,-0.390661,0\O,14,1.35164,11,115.516,9,179.56,0\H,16,0.972378,14,110.701,11,-0.313549,0\C,2,1.54568,1,120.591,3,178.578,0\H,18,1.09752,2,109.151,1,-123.113,0\N,18,1.45144,2,105.935,1,-5.44044,0\H,20,1.01843,18,111.889,2,2.89388,0\C,20,1.35544,18,121.67,2,-148.871,0\O,22,1.23084,20,123.809,18,-20.1663,0\C,22,1.53121,20,115.566,18,157.866,0\H,24,1.09493,22,111.321,20,28.1025,0\N,24,1.44888,22,107.53,20,146.329,0\H,26,1.01368,24,115.443,22,25.2953,0\C,26,1.3576,24,122.208,22,-159.742,0\O,28,1.23049,26,122.588,24,0.0176753,0\C,28,1.52885,26,115.942,24,177.13,0\H,30,1.09815,28,110.341,26,27.6831,0\H,30,1.10728,28,106.01,26,-87.2379,0\N,30,1.4577,28,108.893,26,148.863,0\H,33,1.0168,30,110.298,28,155.38,0\H,33,1.01962,30,107.311,28,38.4308,0\C,18,1.53569,2,113.404,1,118.346,0\H,36,1.09677,18,107.977,2,-170.623,0\H,36,1.1003,18,110.21,2,-51.7845,0\O,36,1.42719,18,106.541,2,69.7101,0\H,39,0.968018,36,108.88,18,-174.414,0\C,5,1.54864,3,109.381,2,95.2693,0\H,41,1.09686,5,106.052,3,-48.4667,0\H,41,1.09749,5,107.218,3,65.9878,0\C,41,1.54548,5,118.378,3,-169.583,0\H,44,1.09975,41,104.293,5,175.69,0\C,44,1.53669,41,112.366,5,60.325,0\H,46,1.09588,44,111.007,41,51.8333,0\H,46,1.09648,44,110.811,41,171.904,0\H,46,1.09773,44,111.927,41,-68.6224,0\C,44,1.53738,41,114.365,5,-68.0559,0\H,50,1.09609,44,111.461,41,-47.3485,0\H,50,1.09626,44,111.839,41,73.4648,0\H,50,1.09654,44,110.514,41,-167.339,0\C,24,1.56507,22,109.845,20,-92.9806,0\H,54,1.09486,24,107.628,22,-60.0257,0\H,54,1.09632,24,106.419,22,-174.895,0\C,54,1.49393,24,115.016,22,61.1528,0\C,57,1.37631,54,132.281,24,-106.029,0\H,58,1.08252,57,127.221,54,-2.74391,0\N,58,1.37862,57,111.445,54,177.793,0\C,60,1.31484,58,105.005,57,-0.15184,0\H,61,1.08153,60,126.002,58,-179.668,0\N,61,1.36656,60,111.776,58,0.17637,0\H,63,1.01064,61,126.347,60,177.626,0\\\@

 Total job time:  3143.29s(wall), 24778.34s(cpu) 
 Thu Nov  1 02:11:14 2018

        *************************************************************
        *                                                           *
        *  Thank you very much for using Q-Chem.  Have a nice day.  *
        *                                                           *
        *************************************************************


