
Running Job 1 of 1 GHSLG_malonate_SNAC_b3lyp.in
qchem GHSLG_malonate_SNAC_b3lyp.in_20572.0 /scr/c295_krishna/156591/qchem20572/ 1
/usr/software/qchem_511/exe/qcprog.exe_s GHSLG_malonate_SNAC_b3lyp.in_20572.0 /scr/c295_krishna/156591/qchem20572/
Check license passed

                  Welcome to Q-Chem
     A Quantum Leap Into The Future Of Chemistry


 Q-Chem 5.1, Q-Chem, Inc., Pleasanton, CA (2018)

 Yihan Shao,  Zhengting Gan,  E. Epifanovsky,  A. T. B. Gilbert,  M. Wormit,  
 J. Kussmann,  A. W. Lange,  A. Behn,  Jia Deng,  Xintian Feng,  D. Ghosh,  
 M. Goldey,  P. R. Horn,  L. D. Jacobson,  I. Kaliman,  T. Kus,  A. Landau,  
 Jie Liu,  E. I. Proynov,  R. M. Richard,  R. P. Steele,  E. J. Sundstrom,  
 H. L. Woodcock III,  P. M. Zimmerman,  D. Zuev,  B. Albrecht,  E. Alguire,  
 S. A. Baeppler,  D. Barton,  Z. Benda,  Y. A. Bernard,  E. J. Berquist,  
 K. B. Bravaya,  H. Burton,  D. Casanova,  Chun-Min Chang,  Yunqing Chen,  
 A. Chien,  K. D. Closser,  M. P. Coons,  S. Coriani,  S. Dasgupta,  
 A. L. Dempwolff,  M. Diedenhofen,  Hainam Do,  R. G. Edgar,  Po-Tung Fang,  
 S. Faraji,  S. Fatehi,  Qingguo Feng,  K. D. Fenk,  J. Fosso-Tande,  
 Qinghui Ge,  A. Ghysels,  G. Gidofalvi,  J. Gomes,  J. Gonthier,  A. Gunina,  
 D. Hait,  M. W. D. Hanson-Heine,  P. H. P. Harbach,  A. W. Hauser,  
 J. E. Herr,  E. G. Hohenstein,  Z. C. Holden,  Kerwin Hui,  B. C. Huynh,  
 T.-C. Jagau,  Hyunjun Ji,  B. Kaduk,  K. Khistyaev,  Jaehoon Kim,  
 P. Klunzinger,  K. Koh,  D. Kosenkov,  L. Koulias,  T. Kowalczyk,  
 C. M. Krauter,  A. Kunitsa,  Ka Un Lao,  A. Laurent,  K. V. Lawler,  
 Joonho Lee,  D. Lefrancois,  S. Lehtola,  D. S. Levine,  Yi-Pei Li,  
 You-Sheng Lin,  Fenglai Liu,  E. Livshits,  A. Luenser,  P. Manohar,  
 E. Mansoor,  S. F. Manzer,  Shan-Ping Mao,  Yuezhi Mao,  N. Mardirossian,  
 A. V. Marenich,  T. Markovich,  L. A. Martinez-Martinez,  S. A. Maurer,  
 N. J. Mayhall,  S. C. McKenzie,  J.-M. Mewes,  A. F. Morrison,  
 J. W. Mullinax,  K. Nanda,  T. S. Nguyen-Beck,  R. Olivares-Amaya,  
 J. A. Parkhill,  T. M. Perrine,  F. Plasser,  P. Pokhilko,  S. Prager,  
 A. Prociuk,  E. Ramos,  D. R. Rehn,  F. Rob,  M. Schneider,  N. Sergueev,  
 S. M. Sharada,  S. Sharma,  D. W. Small,  T. Stauch,  T. Stein,  
 Yu-Chuan Su,  A. J. W. Thom,  A. Tkatchenko,  T. Tsuchimochi,  N. M. Tubman,  
 L. Vogt,  M. L. Vidal,  O. Vydrov,  M. A. Watson,  J. Wenzel,  
 M. de Wergifosse,  T. A. Wesolowski,  A. White,  J. Witte,  A. Yamada,  
 Jun Yang,  K. Yao,  S. Yeganeh,  S. R. Yost,  Zhi-Qiang You,  A. Zech,  
 Igor Ying Zhang,  Xing Zhang,  Yan Zhao,  Ying Zhu,  B. R. Brooks,  
 G. K. L. Chan,  C. J. Cramer,  M. S. Gordon,  W. J. Hehre,  A. Klamt,  
 M. W. Schmidt,  C. D. Sherrill,  D. G. Truhlar,  A. Aspuru-Guzik,  R. Baer,  
 A. T. Bell,  N. A. Besley,  Jeng-Da Chai,  A. E. DePrince, III,  
 R. A. DiStasio Jr.,  A. Dreuw,  B. D. Dunietz,  T. R. Furlani,  
 Chao-Ping Hsu,  Yousung Jung,  Jing Kong,  D. S. Lambrecht,  WanZhen Liang,  
 C. Ochsenfeld,  V. A. Rassolov,  L. V. Slipchenko,  J. E. Subotnik,  
 T. Van Voorhis,  J. M. Herbert,  A. I. Krylov,  P. M. W. Gill,  M. Head-Gordon

 Contributors to earlier versions of Q-Chem not listed above: 
 R. D. Adamson,  B. Austin,  J. Baker,  G. J. O. Beran,  K. Brandhorst,  
 S. T. Brown,  E. F. C. Byrd,  A. K. Chakraborty,  C.-L. Cheng,  
 Siu Hung Chien,  D. M. Chipman,  D. L. Crittenden,  H. Dachsel,  
 R. J. Doerksen,  A. D. Dutoi,  L. Fusti-Molnar,  W. A. Goddard III,  
 A. Golubeva-Zadorozhnaya,  S. R. Gwaltney,  G. Hawkins,  A. Heyden,  
 S. Hirata,  G. Kedziora,  F. J. Keil,  C. Kelley,  Jihan Kim,  R. A. King,  
 R. Z. Khaliullin,  P. P. Korambath,  W. Kurlancheek,  A. M. Lee,  M. S. Lee,  
 S. V. Levchenko,  Ching Yeh Lin,  D. Liotard,  R. C. Lochan,  I. Lotan,  
 P. E. Maslen,  N. Nair,  D. P. O'Neill,  D. Neuhauser,  E. Neuscamman,  
 C. M. Oana,  R. Olson,  B. Peters,  R. Peverati,  P. A. Pieniazek,  
 Y. M. Rhee,  J. Ritchie,  M. A. Rohrdanz,  E. Rosta,  N. J. Russ,  
 H. F. Schaefer III,  N. E. Schultz,  N. Shenvi,  A. C. Simmonett,  A. Sodt,  
 D. Stuck,  K. S. Thanthiriwatte,  V. Vanovschi,  Tao Wang,  A. Warshel,  
 C. F. Williams,  Q. Wu,  X. Xu,  W. Zhang

 Please cite Q-Chem as follows:
 Y. Shao et al., Mol. Phys. 113, 184-215 (2015)
 DOI: 10.1080/00268976.2014.952696

 Q-Chem 5.1.1 for Intel X86 EM64T Linux

 Parts of Q-Chem use Armadillo 8.300.2 (Tropical Shenanigans).
 http://arma.sourceforge.net/

 Q-Chem begins on Sat Nov 24 22:01:45 2018  

Host: cub-0-6.local
0

     Scratch files written to /scr/c295_krishna/156591/qchem20572//
 Aug318 |scratch|qcdevops|jenkins|workspace|build_RNUM -1
Processing $rem in /usr/software/qchem_511/config/preferences.
 MEM_TOTAL  2000 
Input Ideriv = 2
Curr. Ideriv = -1
Max.  Ideriv = 2

Checking the input file for inconsistencies... 	...done.

--------------------------------------------------------------
User input:
--------------------------------------------------------------
$molecule
0 1
N   -4.5722100    3.6658940    0.2594540
C   -3.1717390    4.0011980    0.0129700
H   -5.1652050    4.4659870   -0.0594230
H   -4.7214260    3.5520390    1.2887680
C   -2.2512870    2.8701710    0.3983790
H   -2.9002790    4.9115130    0.5917360
H   -3.0373690    4.2071660   -1.0699480
N   -0.9027050    3.0165070    0.2484000
C    0.0576540    1.9702610    0.5946450
H   -0.5525140    3.9253420   -0.0955150
C    1.4581650    2.5963290    0.6429440
N    2.4562910    2.3095330   -0.2520820
C    3.7656960    2.9645830   -0.2260590
H    2.2912200    1.6370010   -1.0119220
C    4.8957090    1.9529360   -0.0924940
N    6.1590070    2.3897370    0.1880620
C    7.3254690    1.5178700    0.2943860
H    6.2983430    3.4044700    0.3102700
C    8.5599150    2.3920130    0.4103710
N    9.5038580    2.3879560   -0.5737060
C   10.6911080    3.2278190   -0.5465110
H    9.3711350    1.7766190   -1.3938240
C   11.9519860    2.4039170   -0.5963890
H   10.7266840    3.8598790    0.3662530
H   10.6701370    3.9016510   -1.4291150
O   13.1554990    3.0140740   -0.6006030
H   13.2336620    3.9780810   -0.5712470
O   -2.7184370    1.8362210    0.8575600
O    1.6494410    3.4394980    1.5086120
O    4.6751470    0.7620390   -0.2491380
O    8.6818760    3.1210140    1.3861430
O   11.9028540    1.1841210   -0.6347590
C   -0.1128520    0.7514590   -0.3559880
H   -0.1748770    1.6241170    1.6277440
C    0.4560960   -0.5244620    0.2164440
H    0.2755700    0.9713190   -1.3702940
H   -1.1908090    0.5418790   -0.5003220
C    1.7536240   -0.7967150    0.5952420
N    1.8229720   -2.0587600    1.0620320
H    2.5938770   -0.1341820    0.5539800
C    0.5665760   -2.5344710    0.9607960
N   -0.2821720   -1.6237550    0.4534780
H    0.2751400   -3.5335530    1.2564510
H   -1.3041520   -1.7523850    0.2815020
C    3.9236300    3.8034770   -1.5118670
H    3.8433630    3.6463070    0.6487400
O    5.2020830    4.3198190   -1.6179970
H    3.1491740    4.6024220   -1.5199630
H    3.7514190    3.1587540   -2.4004240
C    7.1842260    0.5550130    1.5108590
H    7.3856470    0.9273620   -0.6444010
C    8.2722760   -0.5367310    1.7106190
H    6.2305720    0.0003240    1.4068680
H    7.0982770    1.1541100    2.4440700
C    9.6442670    0.0124930    2.1228140
H   10.1240830    0.5880990    1.3122430
H   10.3256920   -0.8290070    2.3712440
H    9.5460530    0.6533700    3.0245040
C    8.4025170   -1.4513950    0.4856490
H    7.9234940   -1.1631670    2.5621760
H    8.7869630   -0.8912020   -0.3921750
H    7.4165010   -1.8946760    0.2304360
H    9.1091360   -2.2807910    0.7020020
C    5.5628750    5.6254470   -1.5979870
C    7.0160410    5.9576510   -1.8180180
C    7.3079590    7.4356380   -1.7631740
H    7.3241670    5.5717620   -2.8129980
H    7.6108430    5.4289440   -1.0426100
O    8.1637010    7.9385240   -0.8476870
H    8.6105510    7.3745550   -0.2009430
O    4.7373610    6.5012400   -1.3831420
O    6.7805320    8.1899110   -2.5654440
C   -1.8866100    7.2580390   -1.2908810
C   -1.0446330    8.0604730   -2.2346410
H   -1.7788270    6.1823560   -1.5359270
H   -2.9575170    7.5417620   -1.3747040
H   -1.5497790    7.4308750   -0.2473550
N    0.2977940    7.8543170   -2.2860860
C    1.1532970    8.6011660   -3.1898300
H    0.7130450    7.1428750   -1.6633410
C    2.6101690    8.1722400   -3.0360400
H    1.0693310    9.6870760   -2.9652360
H    0.8289350    8.4194740   -4.2378060
S    3.6832320    9.1125510   -4.1636450
H    2.7300310    7.0861350   -3.2396120
H    2.9513450    8.3561940   -1.9955940
O   -1.5758600    8.8941460   -2.9550370
H    3.3865340    8.2790690   -5.2590480
$end

$rem
BASIS  =  6-31G
JOB_TYPE  =  Optimization
METHOD  =  B3LYP
SCF_CONVERGENCE  =  8
--------------------------------------------------------------
 ----------------------------------------------------------------
             Standard Nuclear Orientation (Angstroms)
    I     Atom           X                Y                Z
 ----------------------------------------------------------------
    1      N       8.3270040355    -2.0634077217    -0.7023902034
    2      C       7.0498428046    -1.3586025017    -0.6210824633
    3      H       9.0962145326    -1.3550575556    -0.7078375100
    4      H       8.3726412089    -2.5869731649    -1.6071068227
    5      C       5.8871666396    -2.3170839654    -0.5540639909
    6      H       6.9329232451    -0.6980402702    -1.5083937776
    7      H       7.0419190779    -0.7352785198     0.2979354564
    8      N       4.6139229869    -1.8301021339    -0.4886374470
    9      C       3.4329717097    -2.6887306738    -0.4185174594
   10      H       4.4880786105    -0.8055198816    -0.5245083578
   11      C       2.1948517998    -1.8335856187    -0.7210253412
   12      N       1.2277052666    -1.5328465859     0.2029674162
   13      C       0.0861301924    -0.6634270907    -0.0889662139
   14      H       1.3040295296    -1.8877223939     1.1648106048
   15      C      -1.2372934052    -1.3731545682     0.1621025633
   16      N      -2.3983894079    -0.8061952167    -0.2804375885
   17      C      -3.7260862921    -1.3718715870    -0.0583527311
   18      H      -2.3309035662     0.0911410437    -0.7846852205
   19      C      -4.7553627704    -0.3559548233    -0.5165431850
   20      N      -5.6039255672     0.2206199386     0.3817636180
   21      C      -6.5877992455     1.2287298900     0.0193013436
   22      H      -5.5418827007    -0.0493274062     1.3753535585
   23      C      -7.9859811785     0.7860069945     0.3659991538
   24      H      -6.5576239978     1.4608534553    -1.0665677645
   25      H      -6.3611327962     2.1628476605     0.5756514846
   26      O      -9.0314674546     1.6029911321     0.1205440074
   27      H      -8.9080923507     2.4761652877    -0.2777350445
   28      O       6.0923537886    -3.5235600289    -0.5751034265
   29      O       2.1208718948    -1.3593540790    -1.8464288144
   30      O      -1.2599048355    -2.4339280252     0.7668082763
   31      O      -4.7937832775    -0.0412687442    -1.6988902050
   32      O      -8.1905315285    -0.3073641561     0.8704663711
   33      C       3.4143591858    -3.4641264196     0.9293210781
   34      H       3.5109506582    -3.4410804939    -1.2364837852
   35      C       2.5502814614    -4.7013182037     0.8837053443
   36      H       3.1565590719    -2.7978848633     1.7764857736
   37      H       4.4322298701    -3.8370419303     1.1565228951
   38      C       1.2001547380    -4.8014628163     0.6223293337
   39      N       0.8339241461    -6.0970491493     0.6751577203
   40      H       0.5225670009    -4.0039029101     0.3955018943
   41      C       1.9669016213    -6.7650846852     0.9669986967
   42      N       3.0225578099    -5.9428712053     1.0962401690
   43      H       2.0201332031    -7.8396088888     1.0813481534
   44      H       4.0048313244    -6.2201624967     1.3171764141
   45      C       0.2026814009     0.6108046380     0.7740157221
   46      H       0.0884625969    -0.3629991496    -1.1593823375
   47      O      -0.9279825460     1.3984560530     0.6577444937
   48      H       1.1256316361     1.1607297735     0.4843504621
   49      H       0.3012952162     0.3278889395     1.8441054102
   50      C      -3.8797351249    -2.7277402146    -0.8099257802
   51      H      -3.8390088621    -1.5355974789     1.0343889798
   52      C      -5.1838951747    -3.5437562010    -0.5886876820
   53      H      -3.0582750589    -3.3986765741    -0.4889931893
   54      H      -3.7394748308    -2.5598984268    -1.9004959984
   55      C      -6.4371676617    -2.9012462018    -1.1972926430
   56      H      -6.7246768788    -1.9716534943    -0.6759800158
   57      H      -7.2960653245    -3.6006754541    -1.1120091669
   58      H      -6.2738758713    -2.6866645616    -2.2746526970
   59      C      -5.4118375304    -3.8755596406     0.8918774844
   60      H      -5.0378175395    -4.5054781862    -1.1299569471
   61      H      -5.6046135318    -2.9556024103     1.4823908261
   62      H      -4.5243362173    -4.3964592852     1.3100452163
   63      H      -6.2903982899    -4.5464262204     1.0018128317
   64      C      -1.0079994621     2.6449986946     0.1333739400
   65      C      -2.3391441846     3.3487184604     0.1907915427
   66      C      -2.3185047618     4.7218657697    -0.4310685995
   67      H      -2.6468555932     3.4451354800     1.2537377314
   68      H      -3.0870391745     2.7126847120    -0.3294893742
   69      O      -3.1152764820     5.0185381414    -1.4800897987
   70      H      -3.7167858256     4.3665227980    -1.8661937466
   71      O      -0.0356482821     3.1686567533    -0.3909928566
   72      O      -1.5871116024     5.5858072018     0.0265484894
   73      C       6.5746962314     2.3466459379    -0.6840666705
   74      C       5.9913689654     3.6106943884    -0.1314190920
   75      H       6.2625715612     1.4955741240    -0.0460905020
   76      H       7.6844665904     2.3960994507    -0.7022583971
   77      H       6.2053602669     2.1832435591    -1.7180707933
   78      N       4.6430756889     3.7421662910    -0.0215213477
   79      C       4.0319706575     4.9441364855     0.5153588265
   80      H       4.0432852848     2.9595767968    -0.3284408847
   81      C       2.5103037484     4.8232475080     0.5198947851
   82      H       4.3245233889     5.8173945647    -0.1079601195
   83      H       4.3876238193     5.1040156590     1.5567165292
   84      S       1.7440894833     6.3318142374     1.1864412108
   85      H       2.1811566971     3.9498417315     1.1234319400
   86      H       2.1392855344     4.6719675976    -0.5155895893
   87      O       6.7370374867     4.5143261848     0.2201647903
   88      H       1.9398585627     5.9295572701     2.5215417612
 ----------------------------------------------------------------
 Molecular Point Group                 C1    NOp =  1
 Largest Abelian Subgroup              C1    NOp =  1
 Nuclear Repulsion Energy =  6061.0011849916 hartrees
 There are      179 alpha and      179 beta electrons
 Requested basis set is 6-31G
 There are 223 shells and 502 basis functions

 Total QAlloc Memory Limit   2000 MB
 Mega-Array Size       188 MB
 MEM_STATIC part       192 MB
 A cutoff of  1.0D-11 yielded   9050 shell pairs
 There are     50918 function pairs
 
 -------------------------------------------------------
 OpenMP Integral Computing Module                       
 Release: version 1.0, May 2013, Q-Chem Inc. Pittsburgh 
 -------------------------------------------------------
 Integral Job Info:
 Integral job number is                      11
 Integral operator is                         1
 short-range coefficients                     0
 long-range coefficients              100000000
 Omega coefficients                           0
 if combine SR and LR in K                    0
 Integral screening is                        0
 Integral computing path is                   2
 max size of driver memory is            800000
 size of driver memory is                 45569
 size of scratch memory is             14945700
 max col of scratch BK array                289
 max len of scratch array in speh3           22
 max len of scratch index in speh4            8
 max int batch size is                      520
 min int batch size is                       52
 fixed nKL is                                52
 max L of basis functions is                  1
 order of int derivative is                   0
 number of shells is                        223
 number of basis is                         502
 number of cartesian basis is               502
 number of contracted shell pairs          9050
 number of primitive shell pairs          32340
 maxK2 (contraction) of shell pair           36
 max number of K2 of shell pair               1
 max number of CS2 of shell pair           1506
 max number of PS2 of shell pair           6108
 mem total for path MDJ                  691922
 -------------------------------------------------------
 Smallest overlap matrix eigenvalue = 1.62E-03

 Scale SEOQF with 1.000000e-02/1.000000e-02/1.000000e-01

 Standard Electronic Orientation quadrupole field applied
 Nucleus-field energy     =     0.0000000309 hartrees
 Guess from superposition of atomic densities
 Warning:  Energy on first SCF cycle will be non-variational
 SAD guess density has 358.000001 electrons

 -----------------------------------------------------------------------
  General SCF calculation program by
  Eric Jon Sundstrom, Paul Horn, Yuezhi Mao, Dmitri Zuev, Alec White,
  David Stuck, Shaama M.S., Shane Yost, Joonho Lee, David Small,
  Daniel Levine, Susi Lehtola, Hugh Burton, Evgeny Epifanovsky
 -----------------------------------------------------------------------
 Exchange:     0.2000 Hartree-Fock + 0.0800 Slater + 0.7200 B88
 Correlation:  0.1900 VWN1RPA + 0.8100 LYP
 Using SG-1 standard quadrature grid
 using 8 threads for integral computing
 -------------------------------------------------------
 OpenMP Integral computing Module                
 Release: version 1.0, May 2013, Q-Chem Inc. Pittsburgh 
 -------------------------------------------------------
 -------------------------------------------------------
 OpenMP BLAS3 based DFT computing Module                
 Release: version 1.0, May 2013, Q-Chem Inc. Pittsburgh 
 -------------------------------------------------------
 A restricted SCF calculation will be
 performed using DIIS
 SCF converges when DIIS error is below 1.0e-08
 ---------------------------------------
  Cycle       Energy         DIIS error
 ---------------------------------------
    1   -2689.0435032595      4.44e-02  
    2   -2677.7329052882      6.51e-03  
    3   -2674.0062882942      1.37e-02  
    4   -2678.7610803505      2.62e-03  
    5   -2678.9425908201      6.93e-04  
    6   -2678.9510547304      3.57e-04  
    7   -2678.9541910655      1.21e-04  
    8   -2678.9545621967      2.95e-05  
    9   -2678.9545830565      1.09e-05  
   10   -2678.9545860850      3.83e-06  
   11   -2678.9545864604      1.14e-06  
   12   -2678.9545864914      4.97e-07  
   13   -2678.9545864974      1.57e-07  
   14   -2678.9545864980      6.43e-08  
   15   -2678.9545864981      1.19e-08  
   16   -2678.9545864981      5.41e-09  Convergence criterion met
 ---------------------------------------
 SCF time:   CPU 805.25s  wall 102.00s 
 SCF   energy in the final basis set =    -2678.9545864981
 Total energy in the final basis set =    -2678.9545864981
 
 --------------------------------------------------------------
 
                    Orbital Energies (a.u.)
 --------------------------------------------------------------
 
 Alpha MOs
 -- Occupied --
-88.859 -19.243 -19.228 -19.222 -19.188 -19.170 -19.160 -19.149
-19.141 -19.140 -19.124 -19.107 -14.406 -14.398 -14.396 -14.387
-14.379 -14.362 -14.324 -14.306 -10.385 -10.365 -10.361 -10.329
-10.325 -10.320 -10.303 -10.300 -10.291 -10.288 -10.279 -10.269
-10.263 -10.262 -10.235 -10.230 -10.226 -10.223 -10.215 -10.212
-10.202 -10.189 -10.187 -10.179 -10.171 -10.163  -7.940  -5.904
 -5.900  -5.891  -1.179  -1.152  -1.144  -1.098  -1.093  -1.087
 -1.085  -1.070  -1.069  -1.059  -1.055  -1.038  -0.970  -0.962
 -0.956  -0.946  -0.932  -0.898  -0.883  -0.854  -0.828  -0.817
 -0.813  -0.804  -0.799  -0.764  -0.759  -0.754  -0.732  -0.705
 -0.700  -0.687  -0.680  -0.678  -0.677  -0.669  -0.642  -0.628
 -0.623  -0.621  -0.618  -0.610  -0.602  -0.600  -0.594  -0.587
 -0.585  -0.571  -0.558  -0.554  -0.551  -0.550  -0.539  -0.531
 -0.525  -0.521  -0.515  -0.514  -0.509  -0.503  -0.499  -0.494
 -0.493  -0.490  -0.484  -0.474  -0.472  -0.467  -0.463  -0.461
 -0.459  -0.455  -0.451  -0.448  -0.448  -0.443  -0.441  -0.438
 -0.435  -0.432  -0.430  -0.428  -0.426  -0.422  -0.417  -0.415
 -0.411  -0.410  -0.409  -0.406  -0.404  -0.400  -0.398  -0.398
 -0.393  -0.387  -0.387  -0.384  -0.382  -0.378  -0.375  -0.366
 -0.356  -0.352  -0.347  -0.347  -0.338  -0.327  -0.327  -0.325
 -0.323  -0.320  -0.307  -0.296  -0.295  -0.291  -0.287  -0.283
 -0.281  -0.273  -0.272  -0.270  -0.261  -0.254  -0.246  -0.243
 -0.236  -0.232  -0.218
 -- Virtual --
 -0.054  -0.037  -0.035  -0.024  -0.018  -0.010   0.004   0.007
  0.012   0.015   0.021   0.028   0.030   0.032   0.041   0.046
  0.056   0.059   0.063   0.070   0.076   0.080   0.080   0.087
  0.094   0.097   0.100   0.108   0.110   0.112   0.116   0.121
  0.125   0.127   0.133   0.133   0.138   0.140   0.141   0.144
  0.145   0.149   0.151   0.152   0.154   0.155   0.159   0.162
  0.166   0.173   0.179   0.179   0.182   0.185   0.187   0.193
  0.197   0.201   0.203   0.208   0.209   0.213   0.215   0.220
  0.225   0.226   0.231   0.232   0.234   0.241   0.245   0.249
  0.260   0.261   0.267   0.268   0.274   0.276   0.278   0.293
  0.299   0.317   0.322   0.325   0.329   0.331   0.351   0.353
  0.356   0.364   0.372   0.379   0.385   0.386   0.391   0.395
  0.408   0.416   0.419   0.446   0.466   0.476   0.496   0.499
  0.506   0.508   0.514   0.516   0.523   0.527   0.529   0.531
  0.532   0.538   0.540   0.542   0.543   0.547   0.551   0.554
  0.559   0.563   0.567   0.569   0.573   0.577   0.580   0.586
  0.588   0.590   0.598   0.601   0.606   0.609   0.615   0.618
  0.622   0.625   0.627   0.633   0.635   0.639   0.646   0.651
  0.652   0.655   0.659   0.659   0.662   0.665   0.666   0.669
  0.674   0.675   0.682   0.690   0.694   0.701   0.704   0.707
  0.711   0.718   0.724   0.729   0.731   0.735   0.740   0.748
  0.754   0.759   0.764   0.769   0.770   0.772   0.777   0.780
  0.785   0.795   0.800   0.806   0.809   0.812   0.814   0.819
  0.826   0.831   0.833   0.835   0.837   0.841   0.841   0.847
  0.851   0.853   0.857   0.857   0.865   0.870   0.876   0.876
  0.882   0.884   0.888   0.892   0.896   0.897   0.900   0.902
  0.903   0.908   0.909   0.915   0.917   0.918   0.923   0.925
  0.928   0.931   0.933   0.939   0.942   0.946   0.948   0.952
  0.952   0.962   0.962   0.966   0.969   0.974   0.975   0.977
  0.981   0.987   0.992   0.996   1.003   1.005   1.007   1.011
  1.012   1.015   1.016   1.019   1.027   1.037   1.046   1.047
  1.051   1.056   1.066   1.072   1.078   1.084   1.088   1.095
  1.102   1.106   1.108   1.115   1.125   1.136   1.145   1.164
  1.174   1.184   1.185   1.188   1.199   1.206   1.221   1.229
  1.246   1.251   1.255   1.269   1.280   1.283   1.294   1.313
  1.320   1.342   1.346   1.358   1.365   1.378   1.396   1.403
  1.413   1.440   1.442   1.468   1.480   1.502   1.516   1.519
  1.537   1.566   1.590   1.607   1.617   1.628   1.649   1.661
  1.677   1.710   1.713   1.728   1.745   1.756   1.770   1.810
  1.843   1.869   1.895   1.909   1.914   1.928   1.957   1.964
  2.046   2.072   2.133
 --------------------------------------------------------------
 
          Ground-State Mulliken Net Atomic Charges

     Atom                 Charge (a.u.)
  ----------------------------------------
      1 N                    -0.633430
      2 C                    -0.231579
      3 H                     0.272281
      4 H                     0.283541
      5 C                     0.548425
      6 H                     0.143792
      7 H                     0.170056
      8 N                    -0.654431
      9 C                     0.056035
     10 H                     0.316206
     11 C                     0.481454
     12 N                    -0.635466
     13 C                    -0.070689
     14 H                     0.343839
     15 C                     0.567544
     16 N                    -0.649329
     17 C                     0.032284
     18 H                     0.326377
     19 C                     0.500797
     20 N                    -0.616014
     21 C                    -0.204834
     22 H                     0.342401
     23 C                     0.535892
     24 H                     0.220367
     25 H                     0.174819
     26 O                    -0.541373
     27 H                     0.392202
     28 O                    -0.450162
     29 O                    -0.440941
     30 O                    -0.445122
     31 O                    -0.468829
     32 O                    -0.369985
     33 C                    -0.322233
     34 H                     0.212383
     35 C                     0.270155
     36 H                     0.125968
     37 H                     0.177949
     38 C                    -0.079661
     39 N                    -0.396601
     40 H                     0.184882
     41 C                     0.196010
     42 N                    -0.669902
     43 H                     0.158740
     44 H                     0.350985
     45 C                    -0.005806
     46 H                     0.217956
     47 O                    -0.520921
     48 H                     0.179316
     49 H                     0.170432
     50 C                    -0.232341
     51 H                     0.153650
     52 C                    -0.111864
     53 H                     0.183646
     54 H                     0.146195
     55 C                    -0.406998
     56 H                     0.145193
     57 H                     0.129443
     58 H                     0.133175
     59 C                    -0.397021
     60 H                     0.133023
     61 H                     0.113237
     62 H                     0.145560
     63 H                     0.136502
     64 C                     0.543419
     65 C                    -0.403873
     66 C                     0.541022
     67 H                     0.228034
     68 H                     0.165956
     69 O                    -0.544299
     70 H                     0.388601
     71 O                    -0.376405
     72 O                    -0.344515
     73 C                    -0.487681
     74 C                     0.506897
     75 H                     0.138413
     76 H                     0.185754
     77 H                     0.159673
     78 N                    -0.646565
     79 C                    -0.015337
     80 H                     0.307830
     81 C                    -0.564499
     82 H                     0.181097
     83 H                     0.156749
     84 S                     0.103198
     85 H                     0.159578
     86 H                     0.209157
     87 O                    -0.446504
     88 H                     0.037120
  ----------------------------------------
  Sum of atomic charges =     0.000000

 -----------------------------------------------------------------
                    Cartesian Multipole Moments
 -----------------------------------------------------------------
    Charge (ESU x 10^10)
                 0.0000
    Dipole Moment (Debye)
         X      -4.0231      Y       1.3236      Z       2.2485
       Tot       4.7951
    Quadrupole Moments (Debye-Ang)
        XX    -295.0880     XY     -62.5926     YY    -358.6326
        XZ       1.3757     YZ      -4.6398     ZZ    -277.4914
    Octopole Moments (Debye-Ang^2)
       XXX     -72.8478    XXY     155.6500    XYY    -224.0566
       YYY    -407.1322    XXZ    -191.6863    XYZ     -42.9073
       YYZ      29.9007    XZZ      26.8759    YZZ      44.6553
       ZZZ      18.9762
    Hexadecapole Moments (Debye-Ang^3)
      XXXX  -38507.1823   XXXY   -3155.8023   XXYY   -9927.0155
      XYYY   -1777.6174   YYYY  -23737.5306   XXXZ    -214.2239
      XXYZ    -284.5202   XYYZ     225.1422   YYYZ    -257.4352
      XXZZ   -5761.8522   XYZZ    -156.6969   YYZZ   -3541.3906
      XZZZ     -49.0389   YZZZ      32.2829   ZZZZ   -1372.4961
 -----------------------------------------------------------------
 Calculating analytic gradient of the SCF energy
 Gradient of SCF Energy
            1           2           3           4           5           6
    1  -0.0180755  -0.0014582   0.0115253  -0.0005685   0.0032620   0.0091066
    2  -0.0067313  -0.0202367   0.0156797  -0.0034361  -0.0087694  -0.0036649
    3   0.0206041   0.0010379  -0.0031906  -0.0212133   0.0021575  -0.0074410
            7           8           9          10          11          12
    1  -0.0010216   0.0008438  -0.0023711   0.0005678  -0.0018433  -0.0029469
    2   0.0020746  -0.0450317   0.0179913   0.0183468   0.0036451   0.0017230
    3   0.0088491  -0.0017459  -0.0140880   0.0011948  -0.0117552  -0.0266117
           13          14          15          16          17          18
    1   0.0016209   0.0054787   0.0145540  -0.0161924   0.0064915   0.0046646
    2  -0.0098702  -0.0001498  -0.0159798  -0.0338332   0.0175887   0.0177253
    3   0.0176545   0.0150674   0.0089019   0.0199629  -0.0215717  -0.0065894
           19          20          21          22          23          24
    1  -0.0010786  -0.0063363  -0.0052362   0.0052334  -0.0074992  -0.0081435
    2   0.0027374   0.0008612  -0.0155542  -0.0029345   0.0153037   0.0061220
    3  -0.0151498  -0.0275589   0.0040626   0.0173389  -0.0054543  -0.0091887
           25          26          27          28          29          30
    1   0.0026075   0.0191511  -0.0087476  -0.0043159   0.0021657  -0.0039857
    2   0.0024741  -0.0055124  -0.0064237   0.0453597  -0.0187134   0.0435973
    3   0.0054358  -0.0005587   0.0042599   0.0020190   0.0445116  -0.0292667
           31          32          33          34          35          36
    1  -0.0015016   0.0063180  -0.0063046   0.0030739  -0.0024548   0.0004506
    2  -0.0168241   0.0105296   0.0163405  -0.0079637  -0.0719642   0.0013786
    3   0.0468564  -0.0065983  -0.0070734  -0.0079457   0.0033174   0.0053969
           37          38          39          40          41          42
    1   0.0034520  -0.0106860  -0.0005904   0.0059264   0.0338826  -0.0428234
    2  -0.0103613  -0.0216095   0.0401587  -0.0006930   0.0421367   0.0219625
    3   0.0061923   0.0017607  -0.0036399  -0.0013380   0.0027509  -0.0117449
           43          44          45          46          47          48
    1  -0.0010839   0.0274594  -0.0553079  -0.0103477   0.0660755   0.0102614
    2  -0.0035936  -0.0095711   0.0157107   0.0054833  -0.0148587   0.0036584
    3   0.0001166   0.0073737  -0.0105815  -0.0092688  -0.0119357  -0.0013233
           49          50          51          52          53          54
    1   0.0020062  -0.0041505  -0.0021312   0.0016584   0.0026637   0.0019110
    2  -0.0020669   0.0141743   0.0026648   0.0010876  -0.0108968  -0.0035492
    3   0.0086899   0.0087071   0.0073104   0.0034445   0.0005549  -0.0100976
           55          56          57          58          59          60
    1   0.0088462  -0.0002706  -0.0061518   0.0033897  -0.0013285  -0.0023335
    2  -0.0003310   0.0062763  -0.0061605  -0.0006050   0.0063639  -0.0067096
    3   0.0082541   0.0038819   0.0012252  -0.0089666  -0.0078657  -0.0042615
           61          62          63          64          65          66
    1  -0.0003550   0.0078910  -0.0071947  -0.0207378   0.0273801  -0.0201905
    2   0.0083631  -0.0049373  -0.0065656  -0.0178166   0.0276231  -0.0042445
    3   0.0027944   0.0004196  -0.0009771   0.0132166  -0.0032422  -0.0165230
           67          68          69          70          71          72
    1  -0.0005935  -0.0031876   0.0097553   0.0010410  -0.0185174  -0.0013357
    2   0.0015730  -0.0004470  -0.0116699   0.0113224  -0.0053530  -0.0090729
    3   0.0092694  -0.0089801   0.0143978  -0.0013273   0.0090325  -0.0019548
           73          74          75          76          77          78
    1   0.0033683   0.0022869  -0.0032046   0.0147391  -0.0034217   0.0176577
    2   0.0191124   0.0097174  -0.0022027  -0.0027642   0.0030865   0.0340864
    3   0.0087940   0.0051011   0.0072647  -0.0018496  -0.0073016   0.0118213
           79          80          81          82          83          84
    1  -0.0008710  -0.0079584  -0.0081266   0.0003757  -0.0004646   0.0121459
    2  -0.0107602  -0.0159073   0.0312520   0.0063612  -0.0024374  -0.0162475
    3  -0.0047726  -0.0050112   0.0180791  -0.0096484   0.0102291  -0.0230123
           85          86          87          88
    1  -0.0025217  -0.0000646  -0.0275122   0.0022553
    2  -0.0076057  -0.0024539  -0.0380632  -0.0085048
    3   0.0080432  -0.0118624  -0.0152497   0.0083834
 Max gradient component =       7.196E-02
 RMS gradient           =       1.511E-02
 Gradient time:  CPU 184.05 s  wall 30.54 s
 Geometry Optimization Parameters
   NAtoms,    NIC,     NZ,  NCons,   NDum,   NFix, NCnnct, MaxDiis
       88     623       0       0       0       0       0       0


** GEOMETRY OPTIMIZATION IN DELOCALIZED INTERNAL COORDINATES **
   Searching for a Minimum

   Optimization Cycle:   1

                       Coordinates (Angstroms)
     ATOM                X               Y               Z
      1  N         8.3270040355   -2.0634077217   -0.7023902034
      2  C         7.0498428046   -1.3586025017   -0.6210824633
      3  H         9.0962145326   -1.3550575556   -0.7078375100
      4  H         8.3726412089   -2.5869731649   -1.6071068227
      5  C         5.8871666396   -2.3170839654   -0.5540639909
      6  H         6.9329232451   -0.6980402702   -1.5083937776
      7  H         7.0419190779   -0.7352785198    0.2979354564
      8  N         4.6139229869   -1.8301021339   -0.4886374470
      9  C         3.4329717097   -2.6887306738   -0.4185174594
     10  H         4.4880786105   -0.8055198816   -0.5245083578
     11  C         2.1948517998   -1.8335856187   -0.7210253412
     12  N         1.2277052666   -1.5328465859    0.2029674162
     13  C         0.0861301924   -0.6634270907   -0.0889662139
     14  H         1.3040295296   -1.8877223939    1.1648106048
     15  C        -1.2372934052   -1.3731545682    0.1621025633
     16  N        -2.3983894079   -0.8061952167   -0.2804375885
     17  C        -3.7260862921   -1.3718715870   -0.0583527311
     18  H        -2.3309035662    0.0911410437   -0.7846852205
     19  C        -4.7553627704   -0.3559548233   -0.5165431850
     20  N        -5.6039255672    0.2206199386    0.3817636180
     21  C        -6.5877992455    1.2287298900    0.0193013436
     22  H        -5.5418827007   -0.0493274062    1.3753535585
     23  C        -7.9859811785    0.7860069945    0.3659991538
     24  H        -6.5576239978    1.4608534553   -1.0665677645
     25  H        -6.3611327962    2.1628476605    0.5756514846
     26  O        -9.0314674546    1.6029911321    0.1205440074
     27  H        -8.9080923507    2.4761652877   -0.2777350445
     28  O         6.0923537886   -3.5235600289   -0.5751034265
     29  O         2.1208718948   -1.3593540790   -1.8464288144
     30  O        -1.2599048355   -2.4339280252    0.7668082763
     31  O        -4.7937832775   -0.0412687442   -1.6988902050
     32  O        -8.1905315285   -0.3073641561    0.8704663711
     33  C         3.4143591858   -3.4641264196    0.9293210781
     34  H         3.5109506582   -3.4410804939   -1.2364837852
     35  C         2.5502814614   -4.7013182037    0.8837053443
     36  H         3.1565590719   -2.7978848633    1.7764857736
     37  H         4.4322298701   -3.8370419303    1.1565228951
     38  C         1.2001547380   -4.8014628163    0.6223293337
     39  N         0.8339241461   -6.0970491493    0.6751577203
     40  H         0.5225670009   -4.0039029101    0.3955018943
     41  C         1.9669016213   -6.7650846852    0.9669986967
     42  N         3.0225578099   -5.9428712053    1.0962401690
     43  H         2.0201332031   -7.8396088888    1.0813481534
     44  H         4.0048313244   -6.2201624967    1.3171764141
     45  C         0.2026814009    0.6108046380    0.7740157221
     46  H         0.0884625969   -0.3629991496   -1.1593823375
     47  O        -0.9279825460    1.3984560530    0.6577444937
     48  H         1.1256316361    1.1607297735    0.4843504621
     49  H         0.3012952162    0.3278889395    1.8441054102
     50  C        -3.8797351249   -2.7277402146   -0.8099257802
     51  H        -3.8390088621   -1.5355974789    1.0343889798
     52  C        -5.1838951747   -3.5437562010   -0.5886876820
     53  H        -3.0582750589   -3.3986765741   -0.4889931893
     54  H        -3.7394748308   -2.5598984268   -1.9004959984
     55  C        -6.4371676617   -2.9012462018   -1.1972926430
     56  H        -6.7246768788   -1.9716534943   -0.6759800158
     57  H        -7.2960653245   -3.6006754541   -1.1120091669
     58  H        -6.2738758713   -2.6866645616   -2.2746526970
     59  C        -5.4118375304   -3.8755596406    0.8918774844
     60  H        -5.0378175395   -4.5054781862   -1.1299569471
     61  H        -5.6046135318   -2.9556024103    1.4823908261
     62  H        -4.5243362173   -4.3964592852    1.3100452163
     63  H        -6.2903982899   -4.5464262204    1.0018128317
     64  C        -1.0079994621    2.6449986946    0.1333739400
     65  C        -2.3391441846    3.3487184604    0.1907915427
     66  C        -2.3185047618    4.7218657697   -0.4310685995
     67  H        -2.6468555932    3.4451354800    1.2537377314
     68  H        -3.0870391745    2.7126847120   -0.3294893742
     69  O        -3.1152764820    5.0185381414   -1.4800897987
     70  H        -3.7167858256    4.3665227980   -1.8661937466
     71  O        -0.0356482821    3.1686567533   -0.3909928566
     72  O        -1.5871116024    5.5858072018    0.0265484894
     73  C         6.5746962314    2.3466459379   -0.6840666705
     74  C         5.9913689654    3.6106943884   -0.1314190920
     75  H         6.2625715612    1.4955741240   -0.0460905020
     76  H         7.6844665904    2.3960994507   -0.7022583971
     77  H         6.2053602669    2.1832435591   -1.7180707933
     78  N         4.6430756889    3.7421662910   -0.0215213477
     79  C         4.0319706575    4.9441364855    0.5153588265
     80  H         4.0432852848    2.9595767968   -0.3284408847
     81  C         2.5103037484    4.8232475080    0.5198947851
     82  H         4.3245233889    5.8173945647   -0.1079601195
     83  H         4.3876238193    5.1040156590    1.5567165292
     84  S         1.7440894833    6.3318142374    1.1864412108
     85  H         2.1811566971    3.9498417315    1.1234319400
     86  H         2.1392855344    4.6719675976   -0.5155895893
     87  O         6.7370374867    4.5143261848    0.2201647903
     88  H         1.9398585627    5.9295572701    2.5215417612
   Point Group: c1    Number of degrees of freedom:   258


   Energy is  -2678.954586498


 Attempting to Generate Delocalized Internal Coordinates

258 Hessian modes will be used to form the next step
  Hessian Eigenvalues:
     0.002000    0.002000    0.002000    0.002000    0.002000    0.002000
     0.002004    0.003442    0.004570    0.004639    0.004649    0.005678
     0.006194    0.006924    0.007134    0.007473    0.007577    0.007686
     0.007889    0.008080    0.008182    0.008250    0.008278    0.008431
     0.008853    0.009465    0.010804    0.011615    0.011669    0.011683
     0.011800    0.012305    0.012453    0.012554    0.012665    0.013026
     0.013336    0.013679    0.014167    0.016112    0.016416    0.017912
     0.019485    0.020168    0.020306    0.020458    0.021051    0.021637
     0.022220    0.022345    0.022796    0.022871    0.022955    0.023905
     0.024463    0.029085    0.031510    0.038434    0.039921    0.045137
     0.045442    0.045765    0.046109    0.046245    0.047666    0.049051
     0.049087    0.049249    0.049804    0.050017    0.050037    0.050896
     0.051961    0.053163    0.053328    0.054819    0.056139    0.056760
     0.057524    0.057909    0.058067    0.059328    0.062430    0.063529
     0.063661    0.065810    0.066256    0.066977    0.068084    0.070193
     0.074017    0.091211    0.091581    0.095810    0.098616    0.101312
     0.110613    0.112139    0.115602    0.126466    0.128068    0.128629
     0.129801    0.131937    0.133631    0.137292    0.137834    0.139175
     0.159884    0.159924    0.159967    0.159974    0.159982    0.159999
     0.160000    0.160000    0.160000    0.160000    0.160000    0.160000
     0.160000    0.160000    0.160000    0.160000    0.160000    0.160000
     0.160000    0.160000    0.160000    0.160000    0.170846    0.172098
     0.174932    0.177334    0.179343    0.180447    0.181708    0.185404
     0.187242    0.216475    0.218801    0.219961    0.220000    0.220006
     0.220008    0.220018    0.220026    0.220038    0.220056    0.220210
     0.220301    0.220563    0.226563    0.234453    0.247078    0.249752
     0.249934    0.249966    0.249977    0.249983    0.249984    0.249986
     0.249999    0.250000    0.250000    0.250000    0.250000    0.250000
     0.250000    0.250000    0.250000    0.250000    0.250000    0.269957
     0.272243    0.272938    0.282225    0.289812    0.290285    0.290348
     0.297520    0.301210    0.306527    0.313753    0.315211    0.315992
     0.316516    0.316736    0.321716    0.322633    0.323130    0.323519
     0.323589    0.323821    0.323924    0.324124    0.324417    0.324689
     0.324822    0.324922    0.325011    0.325088    0.325142    0.325163
     0.325173    0.325266    0.325344    0.325374    0.325481    0.325682
     0.325917    0.325957    0.326056    0.327600    0.327952    0.327989
     0.328569    0.332557    0.357655    0.364256    0.367422    0.368402
     0.369433    0.371254    0.376570    0.380684    0.403955    0.404792
     0.406766    0.423414    0.423775    0.425499    0.425565    0.430768
     0.445760    0.485823    0.493518    0.507892    0.517909    0.519961
     0.522230    0.529275    0.531221    0.538670    0.538956    0.540316
     0.549580    0.551593    0.558344    0.559264    0.935847    0.936410
     0.938582    0.939856    0.942593    0.947710    0.948371    0.949590

 Minimum Search - Taking Simple RFO Step
 Searching for Lamda that Minimizes Along All modes
 Value Taken    Lamda =  -0.11158176
 Calculated Step too Large.  Step scaled by  0.482875
 Step Taken.  Stepsize is  0.300000

                             Maximum     Tolerance    Cnvgd?
         Gradient           0.057035      0.000300      NO
         Displacement       0.125429      0.001200      NO
         Energy change     *********      0.000001      NO


 New Cartesian Coordinates Obtained by Inverse Iteration

 Displacement from previous Coordinates is: 10.946445
 ----------------------------------------------------------------
             Standard Nuclear Orientation (Angstroms)
    I     Atom           X                Y                Z
 ----------------------------------------------------------------
    1      N       8.1187554003    -2.2219908874    -0.8359365534
    2      C       6.9096595224    -1.4002102892    -0.7321149018
    3      H       8.9499475000    -1.6040154524    -0.8676496973
    4      H       8.1007543416    -2.7727192856    -1.7136609003
    5      C       5.6820180614    -2.2841951529    -0.6253570562
    6      H       6.8084317134    -0.7334116527    -1.6146120476
    7      H       7.0168922125    -0.7761211027     0.1760024840
    8      N       4.4388878729    -1.7191514906    -0.5377094428
    9      C       3.2425304890    -2.5601682183    -0.4424453022
   10      H       4.3471103879    -0.7002743517    -0.5885511537
   11      C       2.0065879926    -1.7092357160    -0.7673964881
   12      N       1.0487148896    -1.4181262376     0.1710484510
   13      C      -0.1207924177    -0.6055955715    -0.1379356662
   14      H       1.1395272446    -1.7557366032     1.1305405576
   15      C      -1.4019207080    -1.3927113202     0.1483144512
   16      N      -2.5866751611    -0.8990643032    -0.3187830398
   17      C      -3.8836074714    -1.5369901496    -0.0870069146
   18      H      -2.5713648093    -0.0206836070    -0.8419765191
   19      C      -4.9570097001    -0.5694971242    -0.5620415781
   20      N      -5.8206276622    -0.0474844167     0.3600453710
   21      C      -6.8608491659     0.9040211402     0.0189918358
   22      H      -5.7361752110    -0.3235453873     1.3414798418
   23      C      -8.2378050409     0.3831992366     0.3796973273
   24      H      -6.8363800139     1.1311375628    -1.0620788720
   25      H      -6.6851637504     1.8488746685     0.5693922966
   26      O      -9.3139338174     1.1680836718     0.1281135462
   27      H      -9.1940256732     2.0420630661    -0.2776789677
   28      O       5.8044798257    -3.5129742808    -0.6476439729
   29      O       1.9169699244    -1.2554918574    -1.9127774545
   30      O      -1.3552404323    -2.4397367162     0.7994098993
   31      O      -5.0141083175    -0.2463941225    -1.7538997038
   32      O      -8.4009483242    -0.7169365830     0.8922064339
   33      C       3.2297595329    -3.3163980140     0.9159405126
   34      H       3.3079630840    -3.3197080598    -1.2455797131
   35      C       2.3667069964    -4.5572458249     0.9176040320
   36      H       2.9853763900    -2.6339376491     1.7503956895
   37      H       4.2534060138    -3.6712691076     1.1227818635
   38      C       1.0093442264    -4.7124274006     0.6974360595
   39      N       0.6731530384    -6.0320356786     0.7934154182
   40      H       0.2941666751    -3.9448049004     0.4727739699
   41      C       1.8194619807    -6.6741787169     1.0694391808
   42      N       2.8596280508    -5.8056261895     1.1484341619
   43      H       1.9046277662    -7.7418032121     1.2083023549
   44      H       3.8399372515    -6.0509628531     1.3453347914
   45      C      -0.0691945997     0.7145138014     0.6669615189
   46      H      -0.1205993798    -0.3498290296    -1.2136364468
   47      O      -1.2545446403     1.4437322330     0.4939759011
   48      H       0.8186026436     1.2942064970     0.3506977675
   49      H       0.0373254507     0.4946879673     1.7455744238
   50      C      -3.9617123962    -2.9076983432    -0.8175084756
   51      H      -3.9901896279    -1.6942299164     1.0031562069
   52      C      -5.2147175096    -3.8017102587    -0.5923778459
   53      H      -3.1012580109    -3.5116060873    -0.4833853129
   54      H      -3.8266910115    -2.7390560997    -1.9028666372
   55      C      -6.5101826952    -3.2535125071    -1.2156915855
   56      H      -6.8658236444    -2.3450677011    -0.7080480094
   57      H      -7.3156935011    -4.0059694445    -1.1272891738
   58      H      -6.3636992309    -3.0368581827    -2.2895891642
   59      C      -5.4275405634    -4.1345546967     0.8941340943
   60      H      -4.9982870288    -4.7525571202    -1.1199959705
   61      H      -5.6863714956    -3.2303242732     1.4743020890
   62      H      -4.5159974045    -4.5868263788     1.3265838716
   63      H      -6.2552664708    -4.8578696709     1.0094874523
   64      C      -1.3584799150     2.6544830732    -0.1147165783
   65      C      -2.7452275371     3.2509207118    -0.1133922829
   66      C      -2.8239279571     4.5923263166    -0.8104088245
   67      H      -3.0799089972     3.3795877472     0.9322529194
   68      H      -3.4259047323     2.5242778583    -0.5978172686
   69      O      -3.6329588686     4.7348094424    -1.8901530771
   70      H      -4.1494293977     3.9819876052    -2.2194409420
   71      O      -0.3976233749     3.1953636240    -0.6544002131
   72      O      -2.1872017620     5.5525369489    -0.4005325226
   73      C       6.8933763787     2.3550823475    -0.7228807161
   74      C       6.6832769463     3.7097170714    -0.0974692977
   75      H       6.5294329684     1.5557419504    -0.0508243245
   76      H       7.9710089729     2.2026816336    -0.8986453382
   77      H       6.3585667697     2.2762057876    -1.6874220045
   78      N       5.4219827842     4.1149389979     0.2258262941
   79      C       5.1943141520     5.4126490955     0.8485746158
   80      H       4.6287465914     3.4968201998     0.0327813764
   81      C       3.7089396976     5.6472843499     1.1227912255
   82      H       5.5706579534     6.2105789743     0.1817189078
   83      H       5.7512990844     5.4576435845     1.8037704135
   84      S       3.4323297566     7.2903023305     1.9066681860
   85      H       3.2997327842     4.8585509544     1.7796578207
   86      H       3.1338282375     5.6198010372     0.1812565623
   87      O       7.6533729133     4.4402497118     0.1280474070
   88      H       3.7626030062     6.8535483275     3.1948470909
 ----------------------------------------------------------------
 Molecular Point Group                 C1    NOp =  1
 Largest Abelian Subgroup              C1    NOp =  1
 Nuclear Repulsion Energy =  5909.6914751991 hartrees
 There are      179 alpha and      179 beta electrons
 Applying Cartesian multipole field
    Component          Value
    ---------          -----
     (2,0,0)        1.00000E-12
     (0,2,0)        2.00000E-12
     (0,0,2)       -3.00000E-11
 Nucleus-field energy     =     0.0000000269 hartrees
 Requested basis set is 6-31G
 There are 223 shells and 502 basis functions
 A cutoff of  1.0D-11 yielded   8641 shell pairs
 There are     48607 function pairs
 Smallest overlap matrix eigenvalue = 1.63E-03
 Guess MOs from SCF MO coefficient file

 -----------------------------------------------------------------------
  General SCF calculation program by
  Eric Jon Sundstrom, Paul Horn, Yuezhi Mao, Dmitri Zuev, Alec White,
  David Stuck, Shaama M.S., Shane Yost, Joonho Lee, David Small,
  Daniel Levine, Susi Lehtola, Hugh Burton, Evgeny Epifanovsky
 -----------------------------------------------------------------------
 Exchange:     0.2000 Hartree-Fock + 0.0800 Slater + 0.7200 B88
 Correlation:  0.1900 VWN1RPA + 0.8100 LYP
 Using SG-1 standard quadrature grid
 using 8 threads for integral computing
 -------------------------------------------------------
 OpenMP Integral computing Module                
 Release: version 1.0, May 2013, Q-Chem Inc. Pittsburgh 
 -------------------------------------------------------
 -------------------------------------------------------
 OpenMP BLAS3 based DFT computing Module                
 Release: version 1.0, May 2013, Q-Chem Inc. Pittsburgh 
 -------------------------------------------------------
 A restricted SCF calculation will be
 performed using DIIS
 SCF converges when DIIS error is below 1.0e-08
 ---------------------------------------
  Cycle       Energy         DIIS error
 ---------------------------------------
    1   -2678.7876780640      1.77e-03  
    2   -2678.9854024383      2.73e-04  
    3   -2678.9832860138      4.43e-04  
    4   -2678.9881837201      9.37e-05  
    5   -2678.9883927571      3.23e-05  
    6   -2678.9884192279      1.03e-05  
    7   -2678.9884217668      4.51e-06  
    8   -2678.9884222495      1.43e-06  
    9   -2678.9884223055      3.67e-07  
   10   -2678.9884223093      1.59e-07  
   11   -2678.9884223101      6.47e-08  
   12   -2678.9884223102      2.51e-08  
   13   -2678.9884223102      8.95e-09  Convergence criterion met
 ---------------------------------------
 SCF time:   CPU 614.54s  wall 78.00s 
 SCF   energy in the final basis set =    -2678.9884223102
 Total energy in the final basis set =    -2678.9884223102
 
 --------------------------------------------------------------
 
                    Orbital Energies (a.u.)
 --------------------------------------------------------------
 
 Alpha MOs
 -- Occupied --
-88.872 -19.241 -19.228 -19.222 -19.186 -19.173 -19.164 -19.153
-19.142 -19.140 -19.126 -19.113 -14.407 -14.396 -14.390 -14.388
-14.380 -14.368 -14.322 -14.305 -10.381 -10.366 -10.363 -10.332
-10.324 -10.321 -10.306 -10.297 -10.297 -10.288 -10.277 -10.267
-10.263 -10.260 -10.237 -10.236 -10.233 -10.230 -10.216 -10.212
-10.204 -10.190 -10.187 -10.179 -10.170 -10.163  -7.953  -5.917
 -5.913  -5.904  -1.171  -1.149  -1.142  -1.093  -1.086  -1.080
 -1.078  -1.068  -1.066  -1.060  -1.053  -1.027  -0.972  -0.962
 -0.957  -0.946  -0.935  -0.897  -0.876  -0.852  -0.828  -0.820
 -0.816  -0.801  -0.799  -0.763  -0.762  -0.752  -0.728  -0.709
 -0.706  -0.685  -0.680  -0.677  -0.676  -0.668  -0.641  -0.631
 -0.629  -0.625  -0.615  -0.613  -0.605  -0.598  -0.596  -0.590
 -0.581  -0.568  -0.559  -0.553  -0.551  -0.550  -0.538  -0.532
 -0.522  -0.521  -0.515  -0.513  -0.513  -0.502  -0.501  -0.499
 -0.491  -0.489  -0.482  -0.479  -0.470  -0.467  -0.462  -0.461
 -0.460  -0.455  -0.451  -0.448  -0.448  -0.442  -0.439  -0.436
 -0.434  -0.432  -0.429  -0.428  -0.426  -0.424  -0.416  -0.415
 -0.414  -0.412  -0.409  -0.407  -0.406  -0.403  -0.398  -0.398
 -0.393  -0.393  -0.388  -0.387  -0.386  -0.382  -0.376  -0.364
 -0.358  -0.356  -0.347  -0.346  -0.339  -0.338  -0.329  -0.326
 -0.324  -0.320  -0.309  -0.299  -0.297  -0.291  -0.290  -0.281
 -0.278  -0.274  -0.273  -0.270  -0.263  -0.259  -0.252  -0.250
 -0.242  -0.233  -0.218
 -- Virtual --
 -0.052  -0.038  -0.037  -0.027  -0.019  -0.012   0.003   0.005
  0.010   0.012   0.016   0.030   0.033   0.034   0.043   0.046
  0.049   0.061   0.071   0.071   0.076   0.080   0.081   0.088
  0.093   0.099   0.101   0.109   0.110   0.114   0.119   0.120
  0.122   0.125   0.128   0.134   0.137   0.139   0.140   0.143
  0.145   0.149   0.150   0.151   0.154   0.156   0.158   0.160
  0.162   0.171   0.176   0.179   0.182   0.185   0.187   0.190
  0.196   0.197   0.200   0.201   0.207   0.209   0.211   0.214
  0.218   0.225   0.227   0.230   0.232   0.239   0.242   0.249
  0.254   0.260   0.265   0.267   0.272   0.277   0.278   0.290
  0.298   0.314   0.316   0.324   0.329   0.331   0.348   0.350
  0.351   0.357   0.361   0.369   0.378   0.381   0.385   0.389
  0.390   0.402   0.413   0.435   0.466   0.474   0.494   0.495
  0.505   0.506   0.512   0.516   0.521   0.524   0.529   0.530
  0.533   0.535   0.538   0.541   0.542   0.546   0.549   0.552
  0.554   0.559   0.565   0.567   0.570   0.574   0.579   0.580
  0.585   0.591   0.594   0.601   0.604   0.605   0.614   0.616
  0.619   0.622   0.626   0.631   0.633   0.637   0.641   0.646
  0.649   0.650   0.654   0.658   0.659   0.661   0.662   0.664
  0.670   0.672   0.677   0.685   0.690   0.693   0.700   0.706
  0.711   0.717   0.722   0.724   0.728   0.732   0.733   0.745
  0.751   0.760   0.764   0.767   0.771   0.772   0.777   0.781
  0.783   0.800   0.804   0.807   0.809   0.810   0.813   0.818
  0.832   0.833   0.834   0.836   0.837   0.842   0.845   0.847
  0.855   0.856   0.859   0.861   0.868   0.870   0.872   0.879
  0.884   0.886   0.888   0.890   0.893   0.895   0.897   0.900
  0.903   0.908   0.909   0.912   0.916   0.920   0.921   0.923
  0.924   0.926   0.932   0.935   0.940   0.941   0.945   0.948
  0.949   0.951   0.956   0.963   0.965   0.968   0.969   0.973
  0.976   0.979   0.983   0.987   0.989   0.991   1.003   1.005
  1.006   1.010   1.016   1.018   1.021   1.028   1.041   1.046
  1.051   1.055   1.060   1.067   1.069   1.070   1.077   1.086
  1.090   1.097   1.099   1.106   1.119   1.132   1.138   1.147
  1.163   1.173   1.176   1.180   1.183   1.200   1.202   1.213
  1.223   1.244   1.256   1.268   1.276   1.279   1.295   1.305
  1.312   1.331   1.342   1.343   1.351   1.377   1.383   1.391
  1.415   1.440   1.443   1.467   1.478   1.493   1.512   1.515
  1.532   1.562   1.581   1.603   1.612   1.630   1.645   1.660
  1.677   1.699   1.704   1.721   1.739   1.745   1.769   1.807
  1.842   1.871   1.893   1.902   1.915   1.921   1.951   1.952
  2.035   2.073   2.126
 --------------------------------------------------------------
 
          Ground-State Mulliken Net Atomic Charges

     Atom                 Charge (a.u.)
  ----------------------------------------
      1 N                    -0.637379
      2 C                    -0.228666
      3 H                     0.272453
      4 H                     0.285562
      5 C                     0.554447
      6 H                     0.143423
      7 H                     0.171477
      8 N                    -0.651393
      9 C                     0.046807
     10 H                     0.317617
     11 C                     0.486404
     12 N                    -0.632110
     13 C                    -0.073593
     14 H                     0.344886
     15 C                     0.573740
     16 N                    -0.646478
     17 C                     0.024560
     18 H                     0.330663
     19 C                     0.510247
     20 N                    -0.613965
     21 C                    -0.208116
     22 H                     0.343778
     23 C                     0.539256
     24 H                     0.219978
     25 H                     0.177141
     26 O                    -0.541219
     27 H                     0.391526
     28 O                    -0.458091
     29 O                    -0.448244
     30 O                    -0.455634
     31 O                    -0.478997
     32 O                    -0.372577
     33 C                    -0.324754
     34 H                     0.215476
     35 C                     0.293751
     36 H                     0.126487
     37 H                     0.181593
     38 C                    -0.098848
     39 N                    -0.402482
     40 H                     0.187980
     41 C                     0.212014
     42 N                    -0.686893
     43 H                     0.160708
     44 H                     0.342359
     45 C                    -0.007223
     46 H                     0.219794
     47 O                    -0.523109
     48 H                     0.187045
     49 H                     0.169698
     50 C                    -0.233703
     51 H                     0.156289
     52 C                    -0.107659
     53 H                     0.184136
     54 H                     0.146196
     55 C                    -0.409388
     56 H                     0.143210
     57 H                     0.131366
     58 H                     0.133975
     59 C                    -0.401098
     60 H                     0.134333
     61 H                     0.114393
     62 H                     0.147766
     63 H                     0.137399
     64 C                     0.539343
     65 C                    -0.407011
     66 C                     0.546923
     67 H                     0.226940
     68 H                     0.169864
     69 O                    -0.544746
     70 H                     0.389670
     71 O                    -0.376396
     72 O                    -0.361842
     73 C                    -0.489342
     74 C                     0.512616
     75 H                     0.142836
     76 H                     0.187053
     77 H                     0.161303
     78 N                    -0.646172
     79 C                    -0.014257
     80 H                     0.310258
     81 C                    -0.560543
     82 H                     0.185098
     83 H                     0.163080
     84 S                     0.076981
     85 H                     0.171358
     86 H                     0.200405
     87 O                    -0.453767
     88 H                     0.052036
  ----------------------------------------
  Sum of atomic charges =    -0.000000

 -----------------------------------------------------------------
                    Cartesian Multipole Moments
 -----------------------------------------------------------------
    Charge (ESU x 10^10)
                 0.0000
    Dipole Moment (Debye)
         X      -3.7708      Y       1.4657      Z       2.9395
       Tot       5.0008
    Quadrupole Moments (Debye-Ang)
        XX    -299.8146     XY     -59.0113     YY    -364.5221
        XZ       4.7871     YZ       2.5386     ZZ    -278.0924
    Octopole Moments (Debye-Ang^2)
       XXX    -230.1978    XXY      89.9473    XYY    -187.2013
       YYY    -456.9765    XXZ    -177.1850    XYZ     -29.8370
       YYZ      46.8792    XZZ      40.2978    YZZ      39.8476
       ZZZ      22.8962
    Hexadecapole Moments (Debye-Ang^3)
      XXXX  -43301.1889   XXXY   -6021.0195   XXYY  -11293.1843
      XYYY   -3140.9637   YYYY  -25886.8537   XXXZ    -403.0866
      XXYZ    -166.0649   XYYZ     104.7031   YYYZ    -389.2157
      XXZZ   -6286.6955   XYZZ    -585.9966   YYZZ   -3855.3095
      XZZZ    -360.8022   YZZZ    -147.5153   ZZZZ   -1718.2842
 -----------------------------------------------------------------
 Calculating analytic gradient of the SCF energy
 Gradient of SCF Energy
            1           2           3           4           5           6
    1  -0.0134976  -0.0059000   0.0084544   0.0001864   0.0012656   0.0070920
    2  -0.0064716  -0.0102758   0.0096220  -0.0007343  -0.0035088  -0.0035298
    3   0.0180297   0.0003159  -0.0039838  -0.0154377   0.0023153  -0.0058456
            7           8           9          10          11          12
    1   0.0040026  -0.0036322   0.0013829   0.0013450  -0.0024589  -0.0070132
    2   0.0015321  -0.0293228   0.0122977   0.0122217   0.0008530  -0.0026418
    3   0.0066269  -0.0017324  -0.0105924   0.0008651  -0.0044461  -0.0162189
           13          14          15          16          17          18
    1   0.0062525   0.0043912   0.0125681  -0.0129733   0.0060187   0.0021352
    2  -0.0054317   0.0024051  -0.0096412  -0.0199745   0.0126248   0.0118751
    3   0.0126221   0.0106019   0.0041634   0.0126340  -0.0152905  -0.0038029
           19          20          21          22          23          24
    1  -0.0000019  -0.0063014  -0.0009385   0.0039010  -0.0072026  -0.0057376
    2   0.0018996  -0.0000897  -0.0109121  -0.0005219   0.0134833   0.0042970
    3  -0.0087539  -0.0157250   0.0018489   0.0112506  -0.0043482  -0.0055883
           25          26          27          28          29          30
    1   0.0020116   0.0154534  -0.0070309  -0.0008269   0.0019898  -0.0027271
    2   0.0015549  -0.0039554  -0.0041618   0.0272959  -0.0110391   0.0236844
    3   0.0038531  -0.0006362   0.0030287   0.0014083   0.0252355  -0.0188673
           31          32          33          34          35          36
    1  -0.0007653   0.0030345  -0.0034384   0.0017097   0.0043417   0.0009393
    2  -0.0123363   0.0040406   0.0138864  -0.0047093  -0.0436959   0.0007794
    3   0.0260950  -0.0032168  -0.0059333  -0.0054741   0.0040440   0.0037571
           37          38          39          40          41          42
    1   0.0027213  -0.0082618  -0.0009971   0.0045652   0.0219470  -0.0318786
    2  -0.0074026  -0.0132120   0.0242854   0.0004070   0.0193679   0.0161694
    3   0.0043095   0.0019822  -0.0026476  -0.0016441   0.0015518  -0.0083470
           43          44          45          46          47          48
    1  -0.0015503   0.0167418  -0.0432727  -0.0079594   0.0487276   0.0077826
    2  -0.0025474  -0.0057713   0.0111451   0.0039142  -0.0069827   0.0021181
    3  -0.0000264   0.0047410  -0.0075466  -0.0059784  -0.0097111  -0.0003084
           49          50          51          52          53          54
    1   0.0032715  -0.0028548  -0.0019625   0.0019250   0.0017240   0.0019070
    2  -0.0015083   0.0113772   0.0017708  -0.0007482  -0.0072751  -0.0028196
    3   0.0060236   0.0074231   0.0052240   0.0011670   0.0003226  -0.0063780
           55          56          57          58          59          60
    1   0.0047480  -0.0003532  -0.0037985   0.0020662  -0.0019604  -0.0015473
    2   0.0008501   0.0033612  -0.0041042  -0.0007856   0.0045970  -0.0045878
    3   0.0057729   0.0019965   0.0008450  -0.0058797  -0.0046833  -0.0030201
           61          62          63          64          65          66
    1  -0.0002478   0.0052210  -0.0042123  -0.0199220   0.0178562  -0.0150300
    2   0.0051439  -0.0031439  -0.0046058  -0.0179245   0.0204500  -0.0044655
    3   0.0016718   0.0003124  -0.0005546   0.0141970  -0.0012886  -0.0132145
           67          68          69          70          71          72
    1  -0.0010207  -0.0018900   0.0081805  -0.0011408  -0.0082641   0.0001365
    2   0.0016098  -0.0011437  -0.0086390   0.0084596  -0.0019680  -0.0050471
    3   0.0057621  -0.0065272   0.0117065  -0.0021285   0.0024232  -0.0004513
           73          74          75          76          77          78
    1   0.0065204  -0.0001747  -0.0011168   0.0081465  -0.0023315   0.0173020
    2   0.0114485   0.0049570  -0.0031217  -0.0028976   0.0015375   0.0195625
    3   0.0043968   0.0020660   0.0047400  -0.0018313  -0.0046747   0.0059213
           79          80          81          82          83          84
    1  -0.0015247  -0.0078758   0.0010215  -0.0004646  -0.0000301   0.0040065
    2  -0.0076167  -0.0087790   0.0253910   0.0041706  -0.0023156  -0.0122187
    3  -0.0030806  -0.0021092   0.0121399  -0.0068154   0.0071666  -0.0170740
           85          86          87          88
    1  -0.0015415  -0.0018498  -0.0211106   0.0015965
    2  -0.0046703  -0.0032388  -0.0180252  -0.0059272
    3   0.0040324  -0.0059221  -0.0058794   0.0070251
 Max gradient component =       4.873E-02
 RMS gradient           =       1.011E-02
 Gradient time:  CPU 169.77 s  wall 28.80 s
 Geometry Optimization Parameters
   NAtoms,    NIC,     NZ,  NCons,   NDum,   NFix, NCnnct, MaxDiis
       88     623       0       0       0       0       0       0

 Cartesian Hessian Update
 Hessian Updated using BFGS Update


** GEOMETRY OPTIMIZATION IN DELOCALIZED INTERNAL COORDINATES **
   Searching for a Minimum

   Optimization Cycle:   2

                       Coordinates (Angstroms)
     ATOM                X               Y               Z
      1  N         8.1187554003   -2.2219908874   -0.8359365534
      2  C         6.9096595224   -1.4002102892   -0.7321149018
      3  H         8.9499475000   -1.6040154524   -0.8676496973
      4  H         8.1007543416   -2.7727192856   -1.7136609003
      5  C         5.6820180614   -2.2841951529   -0.6253570562
      6  H         6.8084317134   -0.7334116527   -1.6146120476
      7  H         7.0168922125   -0.7761211027    0.1760024840
      8  N         4.4388878729   -1.7191514906   -0.5377094428
      9  C         3.2425304890   -2.5601682183   -0.4424453022
     10  H         4.3471103879   -0.7002743517   -0.5885511537
     11  C         2.0065879926   -1.7092357160   -0.7673964881
     12  N         1.0487148896   -1.4181262376    0.1710484510
     13  C        -0.1207924177   -0.6055955715   -0.1379356662
     14  H         1.1395272446   -1.7557366032    1.1305405576
     15  C        -1.4019207080   -1.3927113202    0.1483144512
     16  N        -2.5866751611   -0.8990643032   -0.3187830398
     17  C        -3.8836074714   -1.5369901496   -0.0870069146
     18  H        -2.5713648093   -0.0206836070   -0.8419765191
     19  C        -4.9570097001   -0.5694971242   -0.5620415781
     20  N        -5.8206276622   -0.0474844167    0.3600453710
     21  C        -6.8608491659    0.9040211402    0.0189918358
     22  H        -5.7361752110   -0.3235453873    1.3414798418
     23  C        -8.2378050409    0.3831992366    0.3796973273
     24  H        -6.8363800139    1.1311375628   -1.0620788720
     25  H        -6.6851637504    1.8488746685    0.5693922966
     26  O        -9.3139338174    1.1680836718    0.1281135462
     27  H        -9.1940256732    2.0420630661   -0.2776789677
     28  O         5.8044798257   -3.5129742808   -0.6476439729
     29  O         1.9169699244   -1.2554918574   -1.9127774545
     30  O        -1.3552404323   -2.4397367162    0.7994098993
     31  O        -5.0141083175   -0.2463941225   -1.7538997038
     32  O        -8.4009483242   -0.7169365830    0.8922064339
     33  C         3.2297595329   -3.3163980140    0.9159405126
     34  H         3.3079630840   -3.3197080598   -1.2455797131
     35  C         2.3667069964   -4.5572458249    0.9176040320
     36  H         2.9853763900   -2.6339376491    1.7503956895
     37  H         4.2534060138   -3.6712691076    1.1227818635
     38  C         1.0093442264   -4.7124274006    0.6974360595
     39  N         0.6731530384   -6.0320356786    0.7934154182
     40  H         0.2941666751   -3.9448049004    0.4727739699
     41  C         1.8194619807   -6.6741787169    1.0694391808
     42  N         2.8596280508   -5.8056261895    1.1484341619
     43  H         1.9046277662   -7.7418032121    1.2083023549
     44  H         3.8399372515   -6.0509628531    1.3453347914
     45  C        -0.0691945997    0.7145138014    0.6669615189
     46  H        -0.1205993798   -0.3498290296   -1.2136364468
     47  O        -1.2545446403    1.4437322330    0.4939759011
     48  H         0.8186026436    1.2942064970    0.3506977675
     49  H         0.0373254507    0.4946879673    1.7455744238
     50  C        -3.9617123962   -2.9076983432   -0.8175084756
     51  H        -3.9901896279   -1.6942299164    1.0031562069
     52  C        -5.2147175096   -3.8017102587   -0.5923778459
     53  H        -3.1012580109   -3.5116060873   -0.4833853129
     54  H        -3.8266910115   -2.7390560997   -1.9028666372
     55  C        -6.5101826952   -3.2535125071   -1.2156915855
     56  H        -6.8658236444   -2.3450677011   -0.7080480094
     57  H        -7.3156935011   -4.0059694445   -1.1272891738
     58  H        -6.3636992309   -3.0368581827   -2.2895891642
     59  C        -5.4275405634   -4.1345546967    0.8941340943
     60  H        -4.9982870288   -4.7525571202   -1.1199959705
     61  H        -5.6863714956   -3.2303242732    1.4743020890
     62  H        -4.5159974045   -4.5868263788    1.3265838716
     63  H        -6.2552664708   -4.8578696709    1.0094874523
     64  C        -1.3584799150    2.6544830732   -0.1147165783
     65  C        -2.7452275371    3.2509207118   -0.1133922829
     66  C        -2.8239279571    4.5923263166   -0.8104088245
     67  H        -3.0799089972    3.3795877472    0.9322529194
     68  H        -3.4259047323    2.5242778583   -0.5978172686
     69  O        -3.6329588686    4.7348094424   -1.8901530771
     70  H        -4.1494293977    3.9819876052   -2.2194409420
     71  O        -0.3976233749    3.1953636240   -0.6544002131
     72  O        -2.1872017620    5.5525369489   -0.4005325226
     73  C         6.8933763787    2.3550823475   -0.7228807161
     74  C         6.6832769463    3.7097170714   -0.0974692977
     75  H         6.5294329684    1.5557419504   -0.0508243245
     76  H         7.9710089729    2.2026816336   -0.8986453382
     77  H         6.3585667697    2.2762057876   -1.6874220045
     78  N         5.4219827842    4.1149389979    0.2258262941
     79  C         5.1943141520    5.4126490955    0.8485746158
     80  H         4.6287465914    3.4968201998    0.0327813764
     81  C         3.7089396976    5.6472843499    1.1227912255
     82  H         5.5706579534    6.2105789743    0.1817189078
     83  H         5.7512990844    5.4576435845    1.8037704135
     84  S         3.4323297566    7.2903023305    1.9066681860
     85  H         3.2997327842    4.8585509544    1.7796578207
     86  H         3.1338282375    5.6198010372    0.1812565623
     87  O         7.6533729133    4.4402497118    0.1280474070
     88  H         3.7626030062    6.8535483275    3.1948470909
   Point Group: c1    Number of degrees of freedom:   258


   Energy is  -2678.988422310

 Hessian Updated using BFGS Update

235 Hessian modes will be used to form the next step
  Hessian Eigenvalues:
     0.001996    0.002004    0.002349    0.003431    0.004573    0.004639
     0.004649    0.005678    0.006193    0.006912    0.007135    0.007519
     0.007581    0.007681    0.007885    0.008146    0.008238    0.008258
     0.008276    0.008434    0.008859    0.009469    0.010931    0.011636
     0.011674    0.011684    0.011798    0.012442    0.012472    0.012664
     0.012748    0.013146    0.013383    0.013691    0.014197    0.016118
     0.016416    0.017935    0.019756    0.020226    0.020416    0.020587
     0.021073    0.021726    0.022224    0.022345    0.022796    0.022871
     0.022954    0.023905    0.024469    0.029085    0.031553    0.038403
     0.040561    0.045027    0.045473    0.045779    0.046150    0.046239
     0.047668    0.049021    0.049230    0.049266    0.049821    0.049927
     0.050066    0.050889    0.051939    0.052699    0.053352    0.054820
     0.056139    0.056849    0.057519    0.057905    0.058077    0.059327
     0.062507    0.063281    0.064686    0.065912    0.066278    0.066977
     0.068068    0.070342    0.074052    0.091217    0.091563    0.095696
     0.098617    0.101283    0.110652    0.112029    0.115518    0.126434
     0.127831    0.128293    0.130484    0.132068    0.133510    0.137179
     0.138658    0.139686    0.146040    0.159884    0.159925    0.159967
     0.159975    0.159983    0.159999    0.160000    0.160000    0.164570
     0.170109    0.172066    0.173730    0.177104    0.177547    0.180441
     0.183681    0.185717    0.187140    0.198417    0.216833    0.219103
     0.219976    0.220003    0.220007    0.220012    0.220038    0.220049
     0.220197    0.220258    0.220511    0.221601    0.227616    0.233971
     0.238831    0.247519    0.249752    0.249934    0.249966    0.249977
     0.249983    0.249984    0.249987    0.249999    0.250000    0.269916
     0.272242    0.272893    0.282075    0.289664    0.289831    0.290312
     0.297306    0.299114    0.305281    0.307963    0.313627    0.315487
     0.316174    0.316713    0.318269    0.321912    0.322693    0.323212
     0.323522    0.323645    0.323866    0.323990    0.324208    0.324495
     0.324708    0.324814    0.324971    0.325042    0.325109    0.325149
     0.325169    0.325234    0.325325    0.325345    0.325361    0.325547
     0.325836    0.325912    0.325966    0.327518    0.327869    0.327963
     0.328498    0.332426    0.357512    0.361664    0.366802    0.367980
     0.369202    0.371133    0.375535    0.379152    0.388992    0.404285
     0.405414    0.417344    0.423574    0.424595    0.425533    0.430149
     0.443317    0.463211    0.491452    0.496474    0.508563    0.517908
     0.520766    0.524254    0.528753    0.531093    0.537710    0.538812
     0.539379    0.548957    0.551051    0.559070    0.598001    0.904656
     0.936166    0.937737    0.939332    0.944607    0.946466    0.949100
     0.949900

 Minimum Search - Taking Simple RFO Step
 Searching for Lamda that Minimizes Along All modes
 Value Taken    Lamda =  -0.08354575
 Calculated Step too Large.  Step scaled by  0.417085
 Step Taken.  Stepsize is  0.300000

                             Maximum     Tolerance    Cnvgd?
         Gradient           0.027850      0.000300      NO
         Displacement       0.083552      0.001200      NO
         Energy change     -0.033836      0.000001      NO


 New Cartesian Coordinates Obtained by Inverse Iteration

 Displacement from previous Coordinates is:  7.446608
 ----------------------------------------------------------------
             Standard Nuclear Orientation (Angstroms)
    I     Atom           X                Y                Z
 ----------------------------------------------------------------
    1      N       8.1854909604    -2.1199180064    -0.7443845860
    2      C       6.9159380666    -1.3792585158    -0.6870567990
    3      H       8.9746271457    -1.4669298448    -0.7663604343
    4      H       8.2359561880    -2.7057255529    -1.5826201130
    5      C       5.7442610291    -2.3477750010    -0.5807653801
    6      H       6.7609009403    -0.7338992210    -1.5751237871
    7      H       6.9562570857    -0.7293675416     0.2011666916
    8      N       4.4850163699    -1.8087569783    -0.5051836642
    9      C       3.3033880602    -2.6776710400    -0.4163971322
   10      H       4.3657401134    -0.8039403467    -0.5623990517
   11      C       2.0819603484    -1.8143664624    -0.7608305681
   12      N       1.1412427275    -1.5317964130     0.1982552701
   13      C       0.0085501409    -0.6736763341    -0.0884977503
   14      H       1.2241553777    -1.8984489390     1.1385995526
   15      C      -1.3048244443    -1.4326736297     0.1810765810
   16      N      -2.4565871422    -0.8673674909    -0.2812900284
   17      C      -3.7860949829    -1.4604308384    -0.0853032173
   18      H      -2.4028080024     0.0197871971    -0.7642243663
   19      C      -4.7996700218    -0.4020253411    -0.5104289060
   20      N      -5.6279486262     0.0794499319     0.4687592177
   21      C      -6.6251369374     1.0954509349     0.2151675900
   22      H      -5.5539826074    -0.2803484233     1.4126129772
   23      C      -8.0312666847     0.6075958594     0.5479060060
   24      H      -6.5757742690     1.3891828837    -0.8418403384
   25      H      -6.4137421609     1.9901810464     0.8258228934
   26      O      -9.0539205225     1.4865231369     0.3424670800
   27      H      -8.8366251199     2.3702513331    -0.0086393241
   28      O       5.9179623524    -3.5843183572    -0.5864204231
   29      O       2.0040932371    -1.3294811407    -1.9094869326
   30      O      -1.2966874752    -2.5084377457     0.8155452207
   31      O      -4.8384162796     0.0234024969    -1.6858058909
   32      O      -8.2667387980    -0.5135352741     0.9892109031
   33      C       3.2883468839    -3.4423186310     0.9367222489
   34      H       3.3825980035    -3.4281118492    -1.2159222695
   35      C       2.4514217010    -4.7000749381     0.9507007661
   36      H       3.0340366507    -2.7650232666     1.7679984743
   37      H       4.3192763391    -3.7652136465     1.1273672097
   38      C       1.0973559722    -4.9399282372     0.7547159515
   39      N       0.8263962277    -6.2938980647     0.8653294061
   40      H       0.3268273704    -4.2208337934     0.5412032034
   41      C       1.9975476771    -6.8830993620     1.1251723730
   42      N       2.9994207357    -5.9474677829     1.1820794304
   43      H       2.1422271499    -7.9413011974     1.2682127448
   44      H       3.9774496345    -6.1392624337     1.3595634664
   45      C       0.1205717339     0.6302670865     0.7450106006
   46      H       0.0389168029    -0.3975082714    -1.1512138186
   47      O      -1.0356081294     1.4495205555     0.5694691531
   48      H       1.0297329309     1.1693847918     0.4457313757
   49      H       0.2045843703     0.3875585967     1.8136592454
   50      C      -3.9235456791    -2.7821676578    -0.8868764311
   51      H      -3.9085810669    -1.6731835992     0.9882288013
   52      C      -5.2157575478    -3.6316566017    -0.7193059966
   53      H      -3.0911416024    -3.4272504787    -0.5790109870
   54      H      -3.7722551748    -2.5537835012    -1.9522842784
   55      C      -6.4874457373    -2.9975074607    -1.3204383604
   56      H      -6.8129821407    -2.1104950278    -0.7660487434
   57      H      -7.3180764999    -3.7171994140    -1.2809421931
   58      H      -6.3309284099    -2.7225584189    -2.3729083428
   59      C      -5.4542649067    -4.0411091643     0.7482489268
[...]
    1  -0.0000373  -0.0004989   0.0001267  -0.0006389   0.0003567   0.0000859
    2   0.0000793   0.0000739   0.0001144  -0.0000211   0.0004607   0.0001989
    3  -0.0001615   0.0000650  -0.0000226  -0.0004224  -0.0001923  -0.0006215
           31          32          33          34          35          36
    1   0.0001955  -0.0001107  -0.0003830  -0.0000303  -0.0001809  -0.0000173
    2  -0.0004965   0.0001952  -0.0010249  -0.0000891   0.0004069   0.0000374
    3  -0.0003127  -0.0000531   0.0004242   0.0001711   0.0002116   0.0001133
           37          38          39          40          41          42
    1   0.0001818   0.0002115   0.0001950  -0.0000344  -0.0004858  -0.0000910
    2   0.0003864   0.0003836  -0.0003607  -0.0001422   0.0000838  -0.0006558
    3  -0.0000136   0.0001276  -0.0001443   0.0000251  -0.0000240  -0.0003208
           43          44          45          46          47          48
    1   0.0000591   0.0006235  -0.0005853  -0.0000315   0.0001757  -0.0000735
    2   0.0000250   0.0002156   0.0006318  -0.0002900  -0.0009211  -0.0003410
    3   0.0000485   0.0001382   0.0005385  -0.0003003   0.0001109  -0.0002424
           49          50          51          52          53          54
    1   0.0000355   0.0002688  -0.0000037  -0.0001265  -0.0000067  -0.0000027
    2  -0.0001416   0.0001272  -0.0002176   0.0001534  -0.0002201  -0.0001238
    3  -0.0002081  -0.0006608  -0.0002456   0.0000999   0.0000302   0.0000993
           55          56          57          58          59          60
    1   0.0003922  -0.0000403   0.0000519  -0.0003214  -0.0001088  -0.0000818
    2   0.0005222  -0.0001503  -0.0000298  -0.0002879   0.0000125   0.0001277
    3  -0.0003426   0.0003247  -0.0000181   0.0000607   0.0002447  -0.0000483
           61          62          63          64          65          66
    1  -0.0000317   0.0000056   0.0002323   0.0004253   0.0008034   0.0001491
    2   0.0000184  -0.0000767  -0.0001260   0.0006658  -0.0006786   0.0014456
    3   0.0000829  -0.0001085   0.0000633  -0.0006691  -0.0003698   0.0002365
           67          68          69          70          71          72
    1  -0.0001848  -0.0001316  -0.0011715   0.0007347  -0.0009334  -0.0002863
    2  -0.0000458   0.0001712  -0.0016868  -0.0000917  -0.0006828  -0.0002511
    3   0.0000069   0.0003379   0.0003496  -0.0004946   0.0002304   0.0002193
           73          74          75          76          77          78
    1   0.0001192  -0.0005536   0.0001008   0.0002544   0.0002289   0.0000166
    2   0.0007356  -0.0002456  -0.0015087  -0.0000584  -0.0000632   0.0006951
    3   0.0008011  -0.0011868  -0.0000952  -0.0001875  -0.0001626  -0.0000340
           79          80          81          82          83          84
    1  -0.0002130   0.0008212   0.0000387  -0.0000019   0.0002077  -0.0002231
    2  -0.0001758   0.0003983  -0.0005185   0.0004004  -0.0001411  -0.0004276
    3   0.0013618   0.0003116  -0.0003617  -0.0005322  -0.0003850   0.0001952
           85          86          87          88
    1   0.0001563  -0.0002894  -0.0002787   0.0002175
    2   0.0000110   0.0004771   0.0000548   0.0001732
    3  -0.0002194  -0.0000169   0.0004952  -0.0000216
 Max gradient component =       2.114E-03
 RMS gradient           =       4.701E-04
 Gradient time:  CPU 187.09 s  wall 32.53 s
 Geometry Optimization Parameters
   NAtoms,    NIC,     NZ,  NCons,   NDum,   NFix, NCnnct, MaxDiis
       88     623       0       0       0       0       0       0

 Cartesian Hessian Update
 Hessian Updated using BFGS Update


** GEOMETRY OPTIMIZATION IN DELOCALIZED INTERNAL COORDINATES **
   Searching for a Minimum

   Optimization Cycle:  50

                       Coordinates (Angstroms)
     ATOM                X               Y               Z
      1  N         8.2971536996   -3.3583679036    0.3810575124
      2  C         7.2082254705   -2.5469709490   -0.1286583860
      3  H         9.2288081535   -3.0384304754    0.1582364997
      4  H         8.1541924149   -4.3524416723    0.2517520463
      5  C         5.8904642387   -3.2496876500    0.1674476378
      6  H         7.2276250506   -2.3766100676   -1.2255987613
      7  H         7.2188141743   -1.5522436223    0.3355072921
      8  N         4.8388449775   -2.4531026718    0.4646423710
      9  C         3.4763476444   -2.9368341772    0.6506063448
     10  H         4.9378787907   -1.4440625715    0.5362932077
     11  C         2.5809677301   -1.6997660604    0.5520841641
     12  N         1.2468400498   -1.9175225620    0.4540938023
     13  C         0.2918019375   -0.8230968737    0.3229049222
     14  H         0.8465868726   -2.8457248926    0.3319146421
     15  C        -1.0605251113   -1.4584212806   -0.0655145307
     16  N        -2.0752955083   -0.5782223466   -0.2199517121
     17  C        -3.4389976162   -0.9436996196   -0.6193650348
     18  H        -1.9073619978    0.3968915468   -0.0131829726
     19  C        -4.3529608204   -0.0902091112    0.2588618667
     20  N        -5.3522176079   -0.7028321142    0.9190187980
     21  C        -6.2861971052    0.0376019365    1.7516379529
     22  H        -5.5194160654   -1.7022605585    0.8511002330
     23  C        -7.3424754279   -0.9305003018    2.2667454548
     24  H        -6.7542137487    0.8450684238    1.1725827399
     25  H        -5.7630168054    0.5129509522    2.5924615053
     26  O        -8.3252697072   -0.3931210998    3.0546743577
     27  H        -8.2487079349    0.5721152215    3.2037040507
     28  O         5.7982436890   -4.5060035579    0.0821296582
     29  O         3.0719195443   -0.5403260572    0.5892416321
     30  O        -1.1683018725   -2.6963588823   -0.2400054648
     31  O        -4.1704487999    1.1595730759    0.3908250150
     32  O        -7.3339776447   -2.1290409586    2.0028094933
     33  C         3.2600777140   -3.7054546793    2.0192772589
     34  H         3.2320254953   -3.6274143828   -0.1653655195
     35  C         2.8844070681   -5.1397544818    1.8455578305
     36  H         2.4772348673   -3.2109488205    2.6046688201
     37  H         4.1912927584   -3.5984722150    2.5902071508
     38  C         1.7914448188   -5.8768126290    2.2642332746
     39  N         1.9091778753   -7.2021429934    1.8473136095
     40  H         0.9407431069   -5.5470920991    2.8393116266
     41  C         3.0622368700   -7.2608672393    1.1791904128
     42  N         3.6900082567   -6.0390285064    1.1515145542
     43  H         3.4700051192   -8.1420308857    0.7130223512
     44  H         4.5663534592   -5.7645719757    0.7029848497
     45  C         0.2383505552    0.0032038255    1.6289945109
     46  H         0.6168209740   -0.1520130186   -0.4851523200
     47  O        -0.7137891086    1.1270960148    1.4800800591
     48  H         1.2311265421    0.3990799042    1.8422844264
     49  H        -0.1467937383   -0.5896888532    2.4585189575
     50  C        -3.6246038303   -0.6976282120   -2.1456863782
     51  H        -3.5678516177   -2.0070363738   -0.3973347335
     52  C        -4.9484272249   -1.1663863764   -2.8056241400
     53  H        -2.7959550478   -1.2403724410   -2.6180235938
     54  H        -3.4636057480    0.3694699405   -2.3444543535
     55  C        -6.1529576787   -0.2438572743   -2.5246354102
     56  H        -6.4867593172   -0.3098988635   -1.4820391571
     57  H        -7.0036415756   -0.5323948861   -3.1527894172
     58  H        -5.9154825517    0.8031298031   -2.7426925399
     59  C        -5.2735402779   -2.6406364546   -2.4896533749
     60  H        -4.7535192308   -1.1027483035   -3.8869775472
     61  H        -5.5874868137   -2.7777575757   -1.4464891147
     62  H        -4.4081568341   -3.2896002325   -2.6693165401
     63  H        -6.0961764506   -2.9980011355   -3.1182468810
     64  C        -0.2375299518    2.3910153645    1.1733515996
     65  C        -1.3840053256    3.3631249946    1.0131319283
     66  C        -1.6840554360    3.5482043532   -0.4893521830
     67  H        -1.0733041540    4.3321797293    1.4058790339
     68  H        -2.2580710371    3.0010094952    1.5571672319
     69  O        -2.6021360389    2.7019279727   -1.0279353069
     70  H        -3.1919722719    2.1684419848   -0.4095973974
     71  O         0.9559322262    2.6414226128    1.0099392898
     72  O        -1.0672357732    4.3606647292   -1.1731364010
     73  C         4.2559720161    2.2258724891   -0.8454952412
     74  C         3.9692288730    3.5990503295   -1.4248286060
     75  H         5.2251986116    2.2325536331   -0.3370229370
     76  H         4.3386919263    1.5090929443   -1.6712687601
     77  H         3.4918171756    1.8654063096   -0.1546541195
     78  N         2.7486164564    4.1338026912   -1.1034815059
     79  C         2.2918140744    5.4160019700   -1.6417765701
     80  H         2.1380292144    3.6310486293   -0.4720284493
     81  C         1.8815635341    6.3645618852   -0.5147335915
     82  H         1.4443375696    5.2719465931   -2.3223713878
     83  H         3.1299006826    5.8189792329   -2.2174254652
     84  S         1.3781994154    8.0895808301   -1.1518901834
     85  H         2.6819839258    6.4830926020    0.2186711019
     86  H         0.9783837170    6.0065753331   -0.0148253888
     87  O         4.7928553581    4.1864631366   -2.1663499480
     88  H         2.6270321599    8.4623487857   -1.6038630349
   Point Group: c1    Number of degrees of freedom:   258


   Energy is  -2679.099523154

 Hessian Updated using BFGS Update

258 Hessian modes will be used to form the next step
  Hessian Eigenvalues:
     0.001183    0.002077    0.002491    0.002667    0.003529    0.004355
     0.004550    0.004787    0.004839    0.005905    0.006949    0.007403
     0.007599    0.007893    0.008021    0.008290    0.008550    0.008924
     0.009034    0.009579    0.009868    0.010649    0.011218    0.012255
     0.012487    0.012574    0.013193    0.013492    0.014031    0.014776
     0.015505    0.016006    0.016810    0.017956    0.018675    0.020055
     0.021249    0.021989    0.022150    0.022716    0.022846    0.022912
     0.023797    0.024052    0.024906    0.025195    0.026855    0.027485
     0.029494    0.029966    0.032003    0.033185    0.034795    0.037364
     0.041449    0.043740    0.045314    0.045844    0.046983    0.047832
     0.048839    0.050023    0.050956    0.051615    0.052075    0.052348
     0.053116    0.053982    0.054394    0.055602    0.056290    0.056542
     0.057548    0.057801    0.058025    0.058320    0.059503    0.063981
     0.064544    0.065240    0.066288    0.066563    0.068782    0.070846
     0.072864    0.074028    0.075326    0.078565    0.086697    0.091552
     0.092236    0.095634    0.096424    0.099010    0.102102    0.109343
     0.112953    0.115165    0.117928    0.127391    0.129215    0.132981
     0.134200    0.135815    0.137982    0.140938    0.148807    0.150803
     0.156267    0.156767    0.158058    0.158877    0.159883    0.159929
     0.160027    0.160118    0.160167    0.160263    0.160297    0.160515
     0.160876    0.161288    0.161586    0.162179    0.162452    0.163374
     0.167013    0.174681    0.177944    0.179075    0.186089    0.187099
     0.194519    0.198912    0.203254    0.205493    0.216473    0.218367
     0.219464    0.220941    0.222182    0.224878    0.228808    0.229049
     0.231041    0.234616    0.235152    0.238551    0.244775    0.246225
     0.247418    0.248844    0.249582    0.250008    0.250483    0.253428
     0.254051    0.256442    0.259671    0.266503    0.268123    0.270183
     0.273134    0.279599    0.283792    0.287171    0.290997    0.292836
     0.294299    0.297183    0.299712    0.300576    0.303985    0.308476
     0.310037    0.317932    0.319524    0.321130    0.322279    0.322842
     0.323088    0.323183    0.323507    0.323855    0.324031    0.324084
     0.324301    0.324724    0.324763    0.324980    0.325074    0.325106
     0.325128    0.325306    0.325446    0.325582    0.325725    0.325774
     0.326421    0.326821    0.327587    0.327705    0.328008    0.328688
     0.329908    0.331246    0.335417    0.344107    0.353973    0.357733
     0.360720    0.363613    0.364341    0.368976    0.372416    0.374924
     0.381547    0.382827    0.396175    0.404723    0.406734    0.414298
     0.424058    0.425130    0.425910    0.431496    0.439825    0.454938
     0.474836    0.493236    0.507095    0.512459    0.520161    0.524732
     0.529180    0.531746    0.535669    0.539047    0.543835    0.550159
     0.554667    0.563583    0.576251    0.592046    0.668444    0.757821
     0.918864    0.934327    0.938912    0.940822    0.947291    0.949367
     0.953655    0.995341    1.153208    2.188823    4.110245   19.271760

 Minimum Search - Taking Simple RFO Step
 Searching for Lamda that Minimizes Along All modes
 Value Taken    Lamda =  -0.00077135
 Calculated Step too Large.  Step scaled by  0.755181
 Step Taken.  Stepsize is  0.300000

                             Maximum     Tolerance    Cnvgd?
         Gradient           0.010518      0.000300      NO
         Displacement       0.095528      0.001200      NO
         Energy change     -0.000258      0.000001      NO


 New Cartesian Coordinates Obtained by Inverse Iteration

 Displacement from previous Coordinates is:  1.421917
 ----------------------------------------------------------------
             Standard Nuclear Orientation (Angstroms)
    I     Atom           X                Y                Z
 ----------------------------------------------------------------
    1      N       8.2984999930    -3.3978660938     0.4946948120
    2      C       7.2316486457    -2.5771303436    -0.0473951281
    3      H       9.2396590826    -3.0871171715     0.3000231947
    4      H       8.1501739398    -4.3908538455     0.3615553485
    5      C       5.9010733736    -3.2678072069     0.2171895427
    6      H       7.2816460219    -2.4105653041    -1.1442615392
    7      H       7.2388589887    -1.5821236722     0.4158423392
    8      N       4.8484958563    -2.4650002638     0.4955155405
    9      C       3.4786639434    -2.9414621188     0.6500033599
   10      H       4.9525676570    -1.4567696817     0.5673288888
   11      C       2.5925176796    -1.6985497783     0.5469584356
   12      N       1.2589773329    -1.9098459430     0.4291899377
   13      C       0.3118350171    -0.8096750278     0.2969852450
   14      H       0.8562596855    -2.8356230332     0.2935958182
   15      C      -1.0401184230    -1.4363094238    -0.1072127956
   16      N      -2.0545578496    -0.5538516605    -0.2540811105
   17      C      -3.4230421619    -0.9162048927    -0.6433463994
   18      H      -1.8855533626     0.4195867602    -0.0423487818
   19      C      -4.3297978301    -0.0897446102     0.2691668924
   20      N      -5.3030465570    -0.7270860325     0.9450629350
   21      C      -6.2288114324    -0.0119785464     1.8094589814
   22      H      -5.4538140833    -1.7284078513     0.8698108000
   23      C      -7.2471809985    -1.0066743524     2.3463410058
   24      H      -6.7308791181     0.7896282464     1.2511360100
   25      H      -5.6921984352     0.4676538644     2.6394761636
   26      O      -8.2186154761    -0.4980644172     3.1672230841
   27      H      -8.1602589707     0.4673751369     3.3228541978
   28      O       5.8032573142    -4.5232540056     0.1269066710
   29      O       3.0861066944    -0.5420078329     0.6169934341
   30      O      -1.1535149352    -2.6744886131    -0.2781813061
   31      O      -4.1717233011     1.1631575534     0.4077028064
   32      O      -7.2209412874    -2.2021721574     2.0700454241
   33      C       3.2319228368    -3.7200831013     2.0064788317
   34      H       3.2457026666    -3.6240992146    -0.1764530561
   35      C       2.8467404650    -5.1483638680     1.8111408450
   36      H       2.4425105248    -3.2233028644     2.5805889768
   37      H       4.1531804963    -3.6288419953     2.5959882295
   38      C       1.7425172833    -5.8809351568     2.2086959655
   39      N       1.8552659535    -7.2025686687     1.7799603642
   40      H       0.8874732091    -5.5506416040     2.7768053595
   41      C       3.0158888840    -7.2630318951     1.1243152522
   42      N       3.6531654760    -6.0460867257     1.1164845008
   43      H       3.4217097117    -8.1421865677     0.6527728714
   44      H       4.5371844152    -5.7754722127     0.6822887290
   45      C       0.2570285874     0.0141906838     1.6050407647
   46      H       0.6467985029    -0.1355689879    -0.5048345713
   47      O      -0.6970919221     1.1373775983     1.4548721791
   48      H       1.2488141347     0.4124713988     1.8211556069
   49      H      -0.1291941665    -0.5778199540     2.4344533437
   50      C      -3.6295307993    -0.6400770053    -2.1611429869
   51      H      -3.5419351907    -1.9844103402    -0.4423646569
   52      C      -4.9551713609    -1.1072497353    -2.8206177979
   53      H      -2.7995642234    -1.1621575418    -2.6542953307
   54      H      -3.4814322025     0.4329644000    -2.3362258960
   55      C      -6.1643805105    -0.1986409649    -2.5161398893
   56      H      -6.4929407800    -0.2847881806    -1.4738315805
   57      H      -7.0164669597    -0.4793591830    -3.1460274965
   58      H      -5.9319649794     0.8535706624    -2.7152629864
   59      C      -5.2673010162    -2.5909611277    -2.5359926413
   60      H      -4.7663578716    -1.0204664347    -3.9013145891
   61      H      -5.5689792707    -2.7568380389    -1.4936578370
   62      H      -4.3997644252    -3.2300660082    -2.7394688161
   63      H      -6.0948105322    -2.9371976939    -3.1646428852
   64      C      -0.2231632440     2.4095697007     1.1846101181
   65      C      -1.3750295278     3.3715814537     1.0032136137
   66      C      -1.6566300951     3.5462835173    -0.5032728230
   67      H      -1.0767114726     4.3441319661     1.3966018247
   68      H      -2.2545299426     3.0058658523     1.5365909445
   69      O      -2.6071858821     2.7342741040    -1.0351103466
   70      H      -3.2136264916     2.2275250706    -0.4097021029
   71      O       0.9725359175     2.6764727522     1.0635946414
   72      O      -1.0151662293     4.3357043802    -1.1919229413
   73      C       4.2502563276     2.2533746439    -0.7764430195
   74      C       3.9412978982     3.6077451507    -1.3857343666
   75      H       5.2200905333     2.2856598981    -0.2699452827
   76      H       4.3412497856     1.5193627025    -1.5862449626
   77      H       3.4911276855     1.8971834843    -0.0778332851
   78      N       2.6967037042     4.1108321875    -1.1083009297
   79      C       2.2160279456     5.3656148796    -1.6879221992
   80      H       2.0855459782     3.6063649321    -0.4780320864
   81      C       1.8322445005     6.3617756251    -0.5919364136
   82      H       1.3498817975     5.1830459909    -2.3342607697
   83      H       3.0338537534     5.7502580154    -2.3033204478
   84      S       1.2990890507     8.0546278674    -1.2907557088
   85      H       2.6520940819     6.5175522410     0.1123613574
   86      H       0.9472386281     6.0184001677    -0.0511454306
   87      O       4.7668690654     4.2035604335    -2.1186808194
   88      H       2.5298683382     8.4091859594    -1.8005724574
 ----------------------------------------------------------------
 Molecular Point Group                 C1    NOp =  1
 Largest Abelian Subgroup              C1    NOp =  1
 Nuclear Repulsion Energy =  6119.3799248198 hartrees
 There are      179 alpha and      179 beta electrons


 *******************************************
 **  MAXIMUM OPTIMIZATION CYCLES REACHED  **
 *******************************************

 Q-Chem fatal error occurred in module 0, line  456:

 Maximum optimization cycles reached

