
Running Job 1 of 1 GHSLG_malonate_fsm.in
qchem GHSLG_malonate_fsm.in_25504.0 /scr/c295_krishna/156641/qchem25504/ 1
/usr/software/qchem_511/exe/qcprog.exe_s GHSLG_malonate_fsm.in_25504.0 /scr/c295_krishna/156641/qchem25504/
Check license passed

                  Welcome to Q-Chem
     A Quantum Leap Into The Future Of Chemistry


 Q-Chem 5.1, Q-Chem, Inc., Pleasanton, CA (2018)

 Yihan Shao,  Zhengting Gan,  E. Epifanovsky,  A. T. B. Gilbert,  M. Wormit,  
 J. Kussmann,  A. W. Lange,  A. Behn,  Jia Deng,  Xintian Feng,  D. Ghosh,  
 M. Goldey,  P. R. Horn,  L. D. Jacobson,  I. Kaliman,  T. Kus,  A. Landau,  
 Jie Liu,  E. I. Proynov,  R. M. Richard,  R. P. Steele,  E. J. Sundstrom,  
 H. L. Woodcock III,  P. M. Zimmerman,  D. Zuev,  B. Albrecht,  E. Alguire,  
 S. A. Baeppler,  D. Barton,  Z. Benda,  Y. A. Bernard,  E. J. Berquist,  
 K. B. Bravaya,  H. Burton,  D. Casanova,  Chun-Min Chang,  Yunqing Chen,  
 A. Chien,  K. D. Closser,  M. P. Coons,  S. Coriani,  S. Dasgupta,  
 A. L. Dempwolff,  M. Diedenhofen,  Hainam Do,  R. G. Edgar,  Po-Tung Fang,  
 S. Faraji,  S. Fatehi,  Qingguo Feng,  K. D. Fenk,  J. Fosso-Tande,  
 Qinghui Ge,  A. Ghysels,  G. Gidofalvi,  J. Gomes,  J. Gonthier,  A. Gunina,  
 D. Hait,  M. W. D. Hanson-Heine,  P. H. P. Harbach,  A. W. Hauser,  
 J. E. Herr,  E. G. Hohenstein,  Z. C. Holden,  Kerwin Hui,  B. C. Huynh,  
 T.-C. Jagau,  Hyunjun Ji,  B. Kaduk,  K. Khistyaev,  Jaehoon Kim,  
 P. Klunzinger,  K. Koh,  D. Kosenkov,  L. Koulias,  T. Kowalczyk,  
 C. M. Krauter,  A. Kunitsa,  Ka Un Lao,  A. Laurent,  K. V. Lawler,  
 Joonho Lee,  D. Lefrancois,  S. Lehtola,  D. S. Levine,  Yi-Pei Li,  
 You-Sheng Lin,  Fenglai Liu,  E. Livshits,  A. Luenser,  P. Manohar,  
 E. Mansoor,  S. F. Manzer,  Shan-Ping Mao,  Yuezhi Mao,  N. Mardirossian,  
 A. V. Marenich,  T. Markovich,  L. A. Martinez-Martinez,  S. A. Maurer,  
 N. J. Mayhall,  S. C. McKenzie,  J.-M. Mewes,  A. F. Morrison,  
 J. W. Mullinax,  K. Nanda,  T. S. Nguyen-Beck,  R. Olivares-Amaya,  
 J. A. Parkhill,  T. M. Perrine,  F. Plasser,  P. Pokhilko,  S. Prager,  
 A. Prociuk,  E. Ramos,  D. R. Rehn,  F. Rob,  M. Schneider,  N. Sergueev,  
 S. M. Sharada,  S. Sharma,  D. W. Small,  T. Stauch,  T. Stein,  
 Yu-Chuan Su,  A. J. W. Thom,  A. Tkatchenko,  T. Tsuchimochi,  N. M. Tubman,  
 L. Vogt,  M. L. Vidal,  O. Vydrov,  M. A. Watson,  J. Wenzel,  
 M. de Wergifosse,  T. A. Wesolowski,  A. White,  J. Witte,  A. Yamada,  
 Jun Yang,  K. Yao,  S. Yeganeh,  S. R. Yost,  Zhi-Qiang You,  A. Zech,  
 Igor Ying Zhang,  Xing Zhang,  Yan Zhao,  Ying Zhu,  B. R. Brooks,  
 G. K. L. Chan,  C. J. Cramer,  M. S. Gordon,  W. J. Hehre,  A. Klamt,  
 M. W. Schmidt,  C. D. Sherrill,  D. G. Truhlar,  A. Aspuru-Guzik,  R. Baer,  
 A. T. Bell,  N. A. Besley,  Jeng-Da Chai,  A. E. DePrince, III,  
 R. A. DiStasio Jr.,  A. Dreuw,  B. D. Dunietz,  T. R. Furlani,  
 Chao-Ping Hsu,  Yousung Jung,  Jing Kong,  D. S. Lambrecht,  WanZhen Liang,  
 C. Ochsenfeld,  V. A. Rassolov,  L. V. Slipchenko,  J. E. Subotnik,  
 T. Van Voorhis,  J. M. Herbert,  A. I. Krylov,  P. M. W. Gill,  M. Head-Gordon

 Contributors to earlier versions of Q-Chem not listed above: 
 R. D. Adamson,  B. Austin,  J. Baker,  G. J. O. Beran,  K. Brandhorst,  
 S. T. Brown,  E. F. C. Byrd,  A. K. Chakraborty,  C.-L. Cheng,  
 Siu Hung Chien,  D. M. Chipman,  D. L. Crittenden,  H. Dachsel,  
 R. J. Doerksen,  A. D. Dutoi,  L. Fusti-Molnar,  W. A. Goddard III,  
 A. Golubeva-Zadorozhnaya,  S. R. Gwaltney,  G. Hawkins,  A. Heyden,  
 S. Hirata,  G. Kedziora,  F. J. Keil,  C. Kelley,  Jihan Kim,  R. A. King,  
 R. Z. Khaliullin,  P. P. Korambath,  W. Kurlancheek,  A. M. Lee,  M. S. Lee,  
 S. V. Levchenko,  Ching Yeh Lin,  D. Liotard,  R. C. Lochan,  I. Lotan,  
 P. E. Maslen,  N. Nair,  D. P. O'Neill,  D. Neuhauser,  E. Neuscamman,  
 C. M. Oana,  R. Olson,  B. Peters,  R. Peverati,  P. A. Pieniazek,  
 Y. M. Rhee,  J. Ritchie,  M. A. Rohrdanz,  E. Rosta,  N. J. Russ,  
 H. F. Schaefer III,  N. E. Schultz,  N. Shenvi,  A. C. Simmonett,  A. Sodt,  
 D. Stuck,  K. S. Thanthiriwatte,  V. Vanovschi,  Tao Wang,  A. Warshel,  
 C. F. Williams,  Q. Wu,  X. Xu,  W. Zhang

 Please cite Q-Chem as follows:
 Y. Shao et al., Mol. Phys. 113, 184-215 (2015)
 DOI: 10.1080/00268976.2014.952696

 Q-Chem 5.1.1 for Intel X86 EM64T Linux

 Parts of Q-Chem use Armadillo 8.300.2 (Tropical Shenanigans).
 http://arma.sourceforge.net/

 Q-Chem begins on Sun Nov 25 16:16:45 2018  

Host: cub-0-26.local
0

     Scratch files written to /scr/c295_krishna/156641/qchem25504//
 Aug318 |scratch|qcdevops|jenkins|workspace|build_RNUM -1
Processing $rem in /usr/software/qchem_511/config/preferences.
 MEM_TOTAL  2000 
 Now reading second FSM geometry
Input Ideriv = 2
Curr. Ideriv = -1
Max.  Ideriv = 2

Checking the input file for inconsistencies... 	...done.

--------------------------------------------------------------
User input:
--------------------------------------------------------------
$molecule
0  1
N       9.0817907382    -0.4365037868    -0.6660943642
C       7.7638336348     0.0771275851    -0.9935664926
H       9.8611317055     0.0725516127    -1.0598809420
H       9.1526048038    -1.4429845017    -0.7617302415
C       6.7146995835    -0.9251314628    -0.5354039151
H       7.5852088532     0.2429667832    -2.0766034705
H       7.5947928656     1.0429278540    -0.4997886754
N       5.5086749825    -0.4240601388    -0.1725859437
C       4.3855319504    -1.2819678822     0.1809570710
H       5.3177060173     0.5712798211    -0.1704029440
C       3.1264357563    -0.4153800336     0.1653711238
N       1.9649833118    -1.0422021708     0.4486957323
C       0.6763559664    -0.3541533672     0.4561605431
H       1.9124884714    -2.0473021851     0.6117963965
C      -0.4025344448    -1.4355496657     0.3311051661
N      -1.6220151588    -0.9954693375    -0.0466410962
C      -2.7728078352    -1.8847206127    -0.2742167819
H      -1.7790335314    -0.0165393431    -0.2552596917
C      -3.9905732424    -0.9764952140    -0.1221252181
N      -5.0615313125    -1.4470335541     0.5358643052
C      -6.2865042849    -0.6737850746     0.7240547001
H      -5.0860830235    -2.3868589757     0.9228211048
C      -7.2213225734    -1.4826860703     1.6048176317
H      -6.7697908467    -0.4749255752    -0.2441133916
H      -6.0654501486     0.3020670983     1.1760100527
O      -8.3778783853    -0.8649509782     1.9878182057
H      -8.4552509226     0.0706649420     1.7058660114
O       6.9572798146    -2.1633029899    -0.5448198809
O       3.1892186245     0.8215131830    -0.0909280373
O      -0.1361830208    -2.6410085144     0.5740072679
O      -3.9385211494     0.2005306405    -0.5991971390
O      -6.9745903194    -2.6352101615     1.9564563839
C       4.5815596483    -2.0203979249     1.5663864143
H       4.2853656411    -2.0527578583    -0.5937973198
C       4.4847338649    -3.5055361469     1.4539230780
H       3.8408979153    -1.6659202746     2.2905916276
H       5.5645041539    -1.7226506562     1.9495259125
C       3.6056583351    -4.4425578074     1.9664767467
N       3.9596120939    -5.7229002100     1.5430664665
H       2.7560467617    -4.2844171460     2.6113729638
C       5.0398013868    -5.5585054406     0.7782516461
N       5.3960114097    -4.2338196100     0.6930027260
H       5.5792669651    -6.3474258917     0.2816242908
H       6.1490628359    -3.7965421691     0.1646457626
C       0.5190509660     0.4937654410     1.7419216524
H       0.6276548471     0.3274281789    -0.3997686749
O      -0.7082681305     1.2800591479     1.6771263370
H       1.3565188448     1.1917153809     1.8043326849
H       0.5302999316    -0.1642074735     2.6182278271
H      -1.3199198729     1.0351195519     2.3949711051
C      -2.6470714073    -2.5481641793    -1.6781309746
H      -2.7616057540    -2.6588672492     0.4987115928
C      -3.6038138255    -3.7167534056    -2.0397059503
H      -1.6217452838    -2.9350233904    -1.7106670197
H      -2.7238667818    -1.7555697581    -2.4336070300
C      -5.0196102486    -3.2690305574    -2.4572636555
H      -5.5961168601    -2.8798820287    -1.6108074872
H      -5.5799764082    -4.1175106419    -2.8668173943
H      -4.9805035645    -2.4898020936    -3.2278773809
C      -3.6475601975    -4.8058775280    -0.9483847844
H      -3.1463904108    -4.1741153858    -2.9305264817
H      -4.1927900189    -4.4718627568    -0.0555717466
H      -2.6391383601    -5.1014524658    -0.6363287140
H      -4.1634139809    -5.6990308178    -1.3172808491
C      -3.1318601031     3.8210022195    -1.0687302278
C      -3.0102759692     3.4029853174     0.3882558740
C      -4.3544738613     3.2490097012     1.0884061647
H      -2.4314085238     4.1508817394     0.9361603828
H      -2.4546917371     2.4566821826     0.4279128383
O      -5.1130801824     2.1803310212     0.6914321379
H      -4.6980309507     1.5849106949     0.0038275933
O      -4.1930002282     3.9678487659    -1.6657780137
O      -4.7376610609     3.9931518170     1.9870861348
C       4.3789228042     3.9235801151     0.6437132335
C       3.1629187685     4.5291808627    -0.0330069262
H       4.1290130622     3.0059907149     1.1840763687
H       4.8064255787     4.6559982993     1.3293489489
H       5.1320834323     3.6747976782    -0.1155493074
N       2.3362717088     3.6246288130    -0.6559656726
C       1.1898117372     4.0623455677    -1.4483438504
H       2.5479968391     2.6331666612    -0.5850220280
C      -0.1304666881     3.5329298755    -0.8729387557
H       1.3029499195     3.7341215973    -2.4899001013
H       1.1983499512     5.1551699581    -1.4334413656
S      -1.5436222054     4.1679312840    -1.9968643875
H      -0.2761604547     3.8718701712     0.1540628197
H      -0.1643813896     2.4415176609    -0.8902463242
O       2.9562699234     5.7632301962    -0.0522613911
****
N       8.2984999930    -3.3978660938     0.4946948120
C       7.2316486457    -2.5771303436    -0.0473951281
H       9.2396590826    -3.0871171715     0.3000231947
H       8.1501739398    -4.3908538455     0.3615553485
C       5.9010733736    -3.2678072069     0.2171895427
H       7.2816460219    -2.4105653041    -1.1442615392
H       7.2388589887    -1.5821236722     0.4158423392
N       4.8484958563    -2.4650002638     0.4955155405
C       3.4786639434    -2.9414621188     0.6500033599
H       4.9525676570    -1.4567696817     0.5673288888
C       2.5925176796    -1.6985497783     0.5469584356
N       1.2589773329    -1.9098459430     0.4291899377
C       0.3118350171    -0.8096750278     0.2969852450
H       0.8562596855    -2.8356230332     0.2935958182
C      -1.0401184230    -1.4363094238    -0.1072127956
N      -2.0545578496    -0.5538516605    -0.2540811105
C      -3.4230421619    -0.9162048927    -0.6433463994
H      -1.8855533626     0.4195867602    -0.0423487818
C      -4.3297978301    -0.0897446102     0.2691668924
N      -5.3030465570    -0.7270860325     0.9450629350
C      -6.2288114324    -0.0119785464     1.8094589814
H      -5.4538140833    -1.7284078513     0.8698108000
C      -7.2471809985    -1.0066743524     2.3463410058
H      -6.7308791181     0.7896282464     1.2511360100
H      -5.6921984352     0.4676538644     2.6394761636
O      -8.2186154761    -0.4980644172     3.1672230841
H      -8.1602589707     0.4673751369     3.3228541978
O       5.8032573142    -4.5232540056     0.1269066710
O       3.0861066944    -0.5420078329     0.6169934341
O      -1.1535149352    -2.6744886131    -0.2781813061
O      -4.1717233011     1.1631575534     0.4077028064
O      -7.2209412874    -2.2021721574     2.0700454241
C       3.2319228368    -3.7200831013     2.0064788317
H       3.2457026666    -3.6240992146    -0.1764530561
C       2.8467404650    -5.1483638680     1.8111408450
H       2.4425105248    -3.2233028644     2.5805889768
H       4.1531804963    -3.6288419953     2.5959882295
C       1.7425172833    -5.8809351568     2.2086959655
N       1.8552659535    -7.2025686687     1.7799603642
H       0.8874732091    -5.5506416040     2.7768053595
C       3.0158888840    -7.2630318951     1.1243152522
N       3.6531654760    -6.0460867257     1.1164845008
H       3.4217097117    -8.1421865677     0.6527728714
H       4.5371844152    -5.7754722127     0.6822887290
C       0.2570285874     0.0141906838     1.6050407647
H       0.6467985029    -0.1355689879    -0.5048345713
O      -0.6970919221     1.1373775983     1.4548721791
H       1.2488141347     0.4124713988     1.8211556069
H      -0.1291941665    -0.5778199540     2.4344533437
H       2.5298683382     8.4091859594    -1.8005724574
C      -3.6295307993    -0.6400770053    -2.1611429869
H      -3.5419351907    -1.9844103402    -0.4423646569
C      -4.9551713609    -1.1072497353    -2.8206177979
H      -2.7995642234    -1.1621575418    -2.6542953307
H      -3.4814322025     0.4329644000    -2.3362258960
C      -6.1643805105    -0.1986409649    -2.5161398893
H      -6.4929407800    -0.2847881806    -1.4738315805
H      -7.0164669597    -0.4793591830    -3.1460274965
H      -5.9319649794     0.8535706624    -2.7152629864
C      -5.2673010162    -2.5909611277    -2.5359926413
H      -4.7663578716    -1.0204664347    -3.9013145891
H      -5.5689792707    -2.7568380389    -1.4936578370
H      -4.3997644252    -3.2300660082    -2.7394688161
H      -6.0948105322    -2.9371976939    -3.1646428852
C      -0.2231632440     2.4095697007     1.1846101181
C      -1.3750295278     3.3715814537     1.0032136137
C      -1.6566300951     3.5462835173    -0.5032728230
H      -1.0767114726     4.3441319661     1.3966018247
H      -2.2545299426     3.0058658523     1.5365909445
O      -2.6071858821     2.7342741040    -1.0351103466
H      -3.2136264916     2.2275250706    -0.4097021029
O       0.9725359175     2.6764727522     1.0635946414
O      -1.0151662293     4.3357043802    -1.1919229413
C       4.2502563276     2.2533746439    -0.7764430195
C       3.9412978982     3.6077451507    -1.3857343666
H       5.2200905333     2.2856598981    -0.2699452827
H       4.3412497856     1.5193627025    -1.5862449626
H       3.4911276855     1.8971834843    -0.0778332851
N       2.6967037042     4.1108321875    -1.1083009297
C       2.2160279456     5.3656148796    -1.6879221992
H       2.0855459782     3.6063649321    -0.4780320864
C       1.8322445005     6.3617756251    -0.5919364136
H       1.3498817975     5.1830459909    -2.3342607697
H       3.0338537534     5.7502580154    -2.3033204478
S       1.2990890507     8.0546278674    -1.2907557088
H       2.6520940819     6.5175522410     0.1123613574
H       0.9472386281     6.0184001677    -0.0511454306
O       4.7668690654     4.2035604335    -2.1186808194
$end

$rem
JOBTYPE        fsm
FSM_NGRAD      3
FSM_NNODE      12
FSM_MODE       2
FSM_OPT_MODE   2
METHOD         b3lyp
BASIS          6-31G
--------------------------------------------------------------
 ----------------------------------------------------------------
             Standard Nuclear Orientation (Angstroms)
    I     Atom           X                Y                Z
 ----------------------------------------------------------------
    1      N       9.0817907382    -0.4365037868    -0.6660943642
    2      C       7.7638336348     0.0771275851    -0.9935664926
    3      H       9.8611317055     0.0725516127    -1.0598809420
    4      H       9.1526048038    -1.4429845017    -0.7617302415
    5      C       6.7146995835    -0.9251314628    -0.5354039151
    6      H       7.5852088532     0.2429667832    -2.0766034705
    7      H       7.5947928656     1.0429278540    -0.4997886754
    8      N       5.5086749825    -0.4240601388    -0.1725859437
    9      C       4.3855319504    -1.2819678822     0.1809570710
   10      H       5.3177060173     0.5712798211    -0.1704029440
   11      C       3.1264357563    -0.4153800336     0.1653711238
   12      N       1.9649833118    -1.0422021708     0.4486957323
   13      C       0.6763559664    -0.3541533672     0.4561605431
   14      H       1.9124884714    -2.0473021851     0.6117963965
   15      C      -0.4025344448    -1.4355496657     0.3311051661
   16      N      -1.6220151588    -0.9954693375    -0.0466410962
   17      C      -2.7728078352    -1.8847206127    -0.2742167819
   18      H      -1.7790335314    -0.0165393431    -0.2552596917
   19      C      -3.9905732424    -0.9764952140    -0.1221252181
   20      N      -5.0615313125    -1.4470335541     0.5358643052
   21      C      -6.2865042849    -0.6737850746     0.7240547001
   22      H      -5.0860830235    -2.3868589757     0.9228211048
   23      C      -7.2213225734    -1.4826860703     1.6048176317
   24      H      -6.7697908467    -0.4749255752    -0.2441133916
   25      H      -6.0654501486     0.3020670983     1.1760100527
   26      O      -8.3778783853    -0.8649509782     1.9878182057
   27      H      -8.4552509226     0.0706649420     1.7058660114
   28      O       6.9572798146    -2.1633029899    -0.5448198809
   29      O       3.1892186245     0.8215131830    -0.0909280373
   30      O      -0.1361830208    -2.6410085144     0.5740072679
   31      O      -3.9385211494     0.2005306405    -0.5991971390
   32      O      -6.9745903194    -2.6352101615     1.9564563839
   33      C       4.5815596483    -2.0203979249     1.5663864143
   34      H       4.2853656411    -2.0527578583    -0.5937973198
   35      C       4.4847338649    -3.5055361469     1.4539230780
   36      H       3.8408979153    -1.6659202746     2.2905916276
   37      H       5.5645041539    -1.7226506562     1.9495259125
   38      C       3.6056583351    -4.4425578074     1.9664767467
   39      N       3.9596120939    -5.7229002100     1.5430664665
   40      H       2.7560467617    -4.2844171460     2.6113729638
   41      C       5.0398013868    -5.5585054406     0.7782516461
   42      N       5.3960114097    -4.2338196100     0.6930027260
   43      H       5.5792669651    -6.3474258917     0.2816242908
   44      H       6.1490628359    -3.7965421691     0.1646457626
   45      C       0.5190509660     0.4937654410     1.7419216524
   46      H       0.6276548471     0.3274281789    -0.3997686749
   47      O      -0.7082681305     1.2800591479     1.6771263370
   48      H       1.3565188448     1.1917153809     1.8043326849
   49      H       0.5302999316    -0.1642074735     2.6182278271
   50      H      -1.3199198729     1.0351195519     2.3949711051
   51      C      -2.6470714073    -2.5481641793    -1.6781309746
   52      H      -2.7616057540    -2.6588672492     0.4987115928
   53      C      -3.6038138255    -3.7167534056    -2.0397059503
   54      H      -1.6217452838    -2.9350233904    -1.7106670197
   55      H      -2.7238667818    -1.7555697581    -2.4336070300
   56      C      -5.0196102486    -3.2690305574    -2.4572636555
   57      H      -5.5961168601    -2.8798820287    -1.6108074872
   58      H      -5.5799764082    -4.1175106419    -2.8668173943
   59      H      -4.9805035645    -2.4898020936    -3.2278773809
   60      C      -3.6475601975    -4.8058775280    -0.9483847844
   61      H      -3.1463904108    -4.1741153858    -2.9305264817
   62      H      -4.1927900189    -4.4718627568    -0.0555717466
   63      H      -2.6391383601    -5.1014524658    -0.6363287140
   64      H      -4.1634139809    -5.6990308178    -1.3172808491
   65      C      -3.1318601031     3.8210022195    -1.0687302278
   66      C      -3.0102759692     3.4029853174     0.3882558740
   67      C      -4.3544738613     3.2490097012     1.0884061647
   68      H      -2.4314085238     4.1508817394     0.9361603828
   69      H      -2.4546917371     2.4566821826     0.4279128383
   70      O      -5.1130801824     2.1803310212     0.6914321379
   71      H      -4.6980309507     1.5849106949     0.0038275933
   72      O      -4.1930002282     3.9678487659    -1.6657780137
   73      O      -4.7376610609     3.9931518170     1.9870861348
   74      C       4.3789228042     3.9235801151     0.6437132335
   75      C       3.1629187685     4.5291808627    -0.0330069262
   76      H       4.1290130622     3.0059907149     1.1840763687
   77      H       4.8064255787     4.6559982993     1.3293489489
   78      H       5.1320834323     3.6747976782    -0.1155493074
   79      N       2.3362717088     3.6246288130    -0.6559656726
   80      C       1.1898117372     4.0623455677    -1.4483438504
   81      H       2.5479968391     2.6331666612    -0.5850220280
   82      C      -0.1304666881     3.5329298755    -0.8729387557
   83      H       1.3029499195     3.7341215973    -2.4899001013
   84      H       1.1983499512     5.1551699581    -1.4334413656
   85      S      -1.5436222054     4.1679312840    -1.9968643875
   86      H      -0.2761604547     3.8718701712     0.1540628197
   87      H      -0.1643813896     2.4415176609    -0.8902463242
   88      O       2.9562699234     5.7632301962    -0.0522613911
 ----------------------------------------------------------------
 Nuclear Repulsion Energy =  6227.0795014014 hartrees
 There are      179 alpha and      179 beta electrons
 Requested basis set is 6-31G
 There are 223 shells and 502 basis functions

 Total QAlloc Memory Limit   2000 MB
 Mega-Array Size       188 MB
 MEM_STATIC part       192 MB
 beginning FSman 

*******************************************
*******************************************
******** Starting FSM Calculation *********
*******************************************
*******************************************
-FSM parameters:
 Maximum displacement of each coordinate during optimization (Angstrom)      0.05
 Maximum optimization steps for each new node                                3
 The scaling factor for optimization (hartrees/Angstrom^2)                   1.75
 The number of LST interpolations used for reparameterization                100
-Aligning product structure to maximum coincidence with the reactant structure
 Total R --> P Distance 18.516898
 New node interpolation distace (Angstroms): 1.54
-Performing force calculation on reactant structure in state:0
 ----------------------------------------------------------------
             Standard Nuclear Orientation (Angstroms)
    I     Atom           X                Y                Z
 ----------------------------------------------------------------
    1      N       9.0817907382    -0.4365037868    -0.6660943642
    2      C       7.7638336348     0.0771275851    -0.9935664926
    3      H       9.8611317055     0.0725516127    -1.0598809420
    4      H       9.1526048038    -1.4429845017    -0.7617302415
    5      C       6.7146995835    -0.9251314628    -0.5354039151
    6      H       7.5852088532     0.2429667832    -2.0766034705
    7      H       7.5947928656     1.0429278540    -0.4997886754
    8      N       5.5086749825    -0.4240601388    -0.1725859437
    9      C       4.3855319504    -1.2819678822     0.1809570710
   10      H       5.3177060173     0.5712798211    -0.1704029440
   11      C       3.1264357563    -0.4153800336     0.1653711238
   12      N       1.9649833118    -1.0422021708     0.4486957323
   13      C       0.6763559664    -0.3541533672     0.4561605431
   14      H       1.9124884714    -2.0473021851     0.6117963965
   15      C      -0.4025344448    -1.4355496657     0.3311051661
   16      N      -1.6220151588    -0.9954693375    -0.0466410962
   17      C      -2.7728078352    -1.8847206127    -0.2742167819
   18      H      -1.7790335314    -0.0165393431    -0.2552596917
   19      C      -3.9905732424    -0.9764952140    -0.1221252181
   20      N      -5.0615313125    -1.4470335541     0.5358643052
   21      C      -6.2865042849    -0.6737850746     0.7240547001
   22      H      -5.0860830235    -2.3868589757     0.9228211048
   23      C      -7.2213225734    -1.4826860703     1.6048176317
   24      H      -6.7697908467    -0.4749255752    -0.2441133916
   25      H      -6.0654501486     0.3020670983     1.1760100527
   26      O      -8.3778783853    -0.8649509782     1.9878182057
   27      H      -8.4552509226     0.0706649420     1.7058660114
   28      O       6.9572798146    -2.1633029899    -0.5448198809
   29      O       3.1892186245     0.8215131830    -0.0909280373
   30      O      -0.1361830208    -2.6410085144     0.5740072679
   31      O      -3.9385211494     0.2005306405    -0.5991971390
   32      O      -6.9745903194    -2.6352101615     1.9564563839
   33      C       4.5815596483    -2.0203979249     1.5663864143
   34      H       4.2853656411    -2.0527578583    -0.5937973198
   35      C       4.4847338649    -3.5055361469     1.4539230780
   36      H       3.8408979153    -1.6659202746     2.2905916276
   37      H       5.5645041539    -1.7226506562     1.9495259125
   38      C       3.6056583351    -4.4425578074     1.9664767467
   39      N       3.9596120939    -5.7229002100     1.5430664665
   40      H       2.7560467617    -4.2844171460     2.6113729638
   41      C       5.0398013868    -5.5585054406     0.7782516461
   42      N       5.3960114097    -4.2338196100     0.6930027260
   43      H       5.5792669651    -6.3474258917     0.2816242908
   44      H       6.1490628359    -3.7965421691     0.1646457626
   45      C       0.5190509660     0.4937654410     1.7419216524
   46      H       0.6276548471     0.3274281789    -0.3997686749
   47      O      -0.7082681305     1.2800591479     1.6771263370
   48      H       1.3565188448     1.1917153809     1.8043326849
   49      H       0.5302999316    -0.1642074735     2.6182278271
   50      H      -1.3199198729     1.0351195519     2.3949711051
   51      C      -2.6470714073    -2.5481641793    -1.6781309746
   52      H      -2.7616057540    -2.6588672492     0.4987115928
   53      C      -3.6038138255    -3.7167534056    -2.0397059503
   54      H      -1.6217452838    -2.9350233904    -1.7106670197
   55      H      -2.7238667818    -1.7555697581    -2.4336070300
   56      C      -5.0196102486    -3.2690305574    -2.4572636555
   57      H      -5.5961168601    -2.8798820287    -1.6108074872
   58      H      -5.5799764082    -4.1175106419    -2.8668173943
   59      H      -4.9805035645    -2.4898020936    -3.2278773809
   60      C      -3.6475601975    -4.8058775280    -0.9483847844
   61      H      -3.1463904108    -4.1741153858    -2.9305264817
   62      H      -4.1927900189    -4.4718627568    -0.0555717466
   63      H      -2.6391383601    -5.1014524658    -0.6363287140
   64      H      -4.1634139809    -5.6990308178    -1.3172808491
   65      C      -3.1318601031     3.8210022195    -1.0687302278
   66      C      -3.0102759692     3.4029853174     0.3882558740
   67      C      -4.3544738613     3.2490097012     1.0884061647
   68      H      -2.4314085238     4.1508817394     0.9361603828
   69      H      -2.4546917371     2.4566821826     0.4279128383
   70      O      -5.1130801824     2.1803310212     0.6914321379
   71      H      -4.6980309507     1.5849106949     0.0038275933
   72      O      -4.1930002282     3.9678487659    -1.6657780137
   73      O      -4.7376610609     3.9931518170     1.9870861348
   74      C       4.3789228042     3.9235801151     0.6437132335
   75      C       3.1629187685     4.5291808627    -0.0330069262
   76      H       4.1290130622     3.0059907149     1.1840763687
   77      H       4.8064255787     4.6559982993     1.3293489489
   78      H       5.1320834323     3.6747976782    -0.1155493074
   79      N       2.3362717088     3.6246288130    -0.6559656726
   80      C       1.1898117372     4.0623455677    -1.4483438504
   81      H       2.5479968391     2.6331666612    -0.5850220280
   82      C      -0.1304666881     3.5329298755    -0.8729387557
   83      H       1.3029499195     3.7341215973    -2.4899001013
   84      H       1.1983499512     5.1551699581    -1.4334413656
   85      S      -1.5436222054     4.1679312840    -1.9968643875
   86      H      -0.2761604547     3.8718701712     0.1540628197
   87      H      -0.1643813896     2.4415176609    -0.8902463242
   88      O       2.9562699234     5.7632301962    -0.0522613911
 ----------------------------------------------------------------
 Nuclear Repulsion Energy =  6227.0795014014 hartrees
 There are      179 alpha and      179 beta electrons
 Requested basis set is 6-31G
 There are 223 shells and 502 basis functions
 A cutoff of  1.0D-11 yielded   9741 shell pairs
 There are     54480 function pairs
 
 -------------------------------------------------------
 OpenMP Integral Computing Module                       
 Release: version 1.0, May 2013, Q-Chem Inc. Pittsburgh 
 -------------------------------------------------------
 Integral Job Info:
 Integral job number is                      11
 Integral operator is                         1
 short-range coefficients                     0
 long-range coefficients              100000000
 Omega coefficients                           0
 if combine SR and LR in K                    0
 Integral screening is                        0
 Integral computing path is                   2
 max size of driver memory is            800000
 size of driver memory is                 45569
 size of scratch memory is             14945700
 max col of scratch BK array                289
 max len of scratch array in speh3           22
 max len of scratch index in speh4            8
 max int batch size is                      520
 min int batch size is                       52
 fixed nKL is                                52
 max L of basis functions is                  1
 order of int derivative is                   0
 number of shells is                        223
 number of basis is                         502
 number of cartesian basis is               502
 number of contracted shell pairs          9741
 number of primitive shell pairs          34550
 maxK2 (contraction) of shell pair           36
 max number of K2 of shell pair               1
 max number of CS2 of shell pair           1625
 max number of PS2 of shell pair           6618
 mem total for path MDJ                  706970
 -------------------------------------------------------
 Smallest overlap matrix eigenvalue = 1.79E-03

 Scale SEOQF with 1.000000e-02/1.000000e-02/1.000000e-01

 Standard Electronic Orientation quadrupole field applied
 Nucleus-field energy     =    -0.0000000110 hartrees
 Guess from superposition of atomic densities
 Warning:  Energy on first SCF cycle will be non-variational
 SAD guess density has 358.000001 electrons

 -----------------------------------------------------------------------
  General SCF calculation program by
  Eric Jon Sundstrom, Paul Horn, Yuezhi Mao, Dmitri Zuev, Alec White,
  David Stuck, Shaama M.S., Shane Yost, Joonho Lee, David Small,
  Daniel Levine, Susi Lehtola, Hugh Burton, Evgeny Epifanovsky
 -----------------------------------------------------------------------
 Exchange:     0.2000 Hartree-Fock + 0.0800 Slater + 0.7200 B88
 Correlation:  0.1900 VWN1RPA + 0.8100 LYP
 Using SG-1 standard quadrature grid
 using 8 threads for integral computing
 -------------------------------------------------------
 OpenMP Integral computing Module                
 Release: version 1.0, May 2013, Q-Chem Inc. Pittsburgh 
 -------------------------------------------------------
 -------------------------------------------------------
 OpenMP BLAS3 based DFT computing Module                
 Release: version 1.0, May 2013, Q-Chem Inc. Pittsburgh 
 -------------------------------------------------------
 A restricted SCF calculation will be
 performed using DIIS
 SCF converges when DIIS error is below 1.0e-08
 ---------------------------------------
  Cycle       Energy         DIIS error
 ---------------------------------------
    1   -2688.4687679049      4.35e-02  
    2   -2677.9745294457      6.29e-03  
    3   -2674.8862277462      1.27e-02  
    4   -2678.9011413613      2.56e-03  
    5   -2679.0769103641      6.13e-04  
    6   -2679.0840344632      3.01e-04  
    7   -2679.0862479000      1.15e-04  
    8   -2679.0865964298      2.72e-05  
    9   -2679.0866144455      9.43e-06  
   10   -2679.0866166086      3.52e-06  
   11   -2679.0866169358      9.86e-07  
   12   -2679.0866169591      4.65e-07  
   13   -2679.0866169645      1.39e-07  
   14   -2679.0866169649      6.34e-08  
   15   -2679.0866169650      1.39e-08  
   16   -2679.0866169650      5.19e-09  Convergence criterion met
 ---------------------------------------
 SCF time:   CPU 887.47s  wall 113.00s 
 SCF   energy in the final basis set =    -2679.0866169650
 Total energy in the final basis set =    -2679.0866169650
 
 --------------------------------------------------------------
 
                    Orbital Energies (a.u.)
 --------------------------------------------------------------
 
 Alpha MOs
 -- Occupied --
-88.880 -19.235 -19.199 -19.189 -19.186 -19.184 -19.176 -19.172
-19.163 -19.152 -19.146 -19.108 -14.425 -14.411 -14.404 -14.394
-14.378 -14.353 -14.316 -14.314 -10.378 -10.358 -10.351 -10.341
-10.339 -10.330 -10.328 -10.291 -10.286 -10.286 -10.286 -10.283
-10.278 -10.243 -10.238 -10.237 -10.231 -10.230 -10.227 -10.227
-10.216 -10.216 -10.200 -10.192 -10.191 -10.188  -7.959  -5.923
 -5.918  -5.912  -1.154  -1.111  -1.104  -1.101  -1.088  -1.086
 -1.079  -1.075  -1.072  -1.034  -1.031  -1.018  -0.992  -0.983
 -0.976  -0.966  -0.923  -0.898  -0.874  -0.851  -0.835  -0.823
 -0.816  -0.807  -0.794  -0.777  -0.763  -0.753  -0.721  -0.713
 -0.711  -0.709  -0.702  -0.686  -0.673  -0.656  -0.644  -0.641
 -0.635  -0.633  -0.624  -0.616  -0.611  -0.594  -0.591  -0.590
 -0.577  -0.574  -0.572  -0.555  -0.552  -0.542  -0.537  -0.532
 -0.525  -0.524  -0.521  -0.513  -0.509  -0.507  -0.500  -0.497
 -0.495  -0.488  -0.485  -0.485  -0.478  -0.476  -0.472  -0.471
 -0.467  -0.466  -0.463  -0.461  -0.460  -0.451  -0.450  -0.443
 -0.441  -0.439  -0.436  -0.433  -0.429  -0.428  -0.424  -0.420
 -0.420  -0.418  -0.417  -0.414  -0.414  -0.407  -0.406  -0.405
 -0.402  -0.399  -0.393  -0.390  -0.388  -0.383  -0.377  -0.372
 -0.368  -0.357  -0.356  -0.354  -0.354  -0.351  -0.340  -0.338
 -0.331  -0.323  -0.319  -0.318  -0.312  -0.308  -0.297  -0.293
 -0.292  -0.291  -0.284  -0.275  -0.270  -0.260  -0.252  -0.248
 -0.244  -0.231  -0.230
 -- Virtual --
 -0.053  -0.047  -0.044  -0.041  -0.030  -0.020  -0.016   0.004
  0.014   0.015   0.020   0.029   0.031   0.039   0.045   0.047
  0.061   0.064   0.067   0.073   0.076   0.083   0.087   0.090
  0.093   0.100   0.106   0.114   0.118   0.120   0.127   0.127
  0.130   0.131   0.133   0.136   0.136   0.142   0.144   0.146
  0.149   0.150   0.151   0.155   0.157   0.159   0.161   0.164
  0.167   0.168   0.171   0.173   0.179   0.182   0.184   0.186
  0.188   0.192   0.194   0.195   0.196   0.201   0.205   0.209
  0.210   0.217   0.220   0.221   0.224   0.230   0.235   0.241
  0.247   0.249   0.254   0.257   0.259   0.274   0.277   0.281
  0.305   0.309   0.310   0.314   0.316   0.322   0.326   0.332
  0.335   0.345   0.360   0.368   0.380   0.383   0.386   0.392
  0.402   0.414   0.432   0.440   0.453   0.461   0.479   0.484
  0.491   0.499   0.504   0.507   0.509   0.510   0.520   0.522
  0.525   0.531   0.537   0.539   0.541   0.541   0.545   0.553
  0.557   0.561   0.563   0.566   0.569   0.571   0.576   0.577
  0.580   0.581   0.584   0.585   0.588   0.597   0.605   0.607
  0.609   0.612   0.616   0.620   0.625   0.626   0.632   0.637
  0.642   0.650   0.654   0.659   0.660   0.662   0.666   0.670
  0.673   0.679   0.680   0.682   0.685   0.688   0.691   0.693
  0.703   0.709   0.713   0.717   0.719   0.724   0.738   0.739
  0.747   0.758   0.764   0.766   0.773   0.775   0.783   0.790
  0.794   0.795   0.798   0.805   0.807   0.817   0.819   0.826
  0.829   0.832   0.836   0.839   0.841   0.848   0.855   0.857
  0.860   0.861   0.862   0.868   0.870   0.879   0.881   0.883
  0.885   0.886   0.890   0.898   0.900   0.902   0.909   0.910
  0.914   0.919   0.920   0.922   0.924   0.926   0.929   0.931
  0.934   0.938   0.940   0.941   0.943   0.946   0.947   0.950
  0.956   0.961   0.965   0.967   0.973   0.975   0.979   0.983
  0.986   0.994   0.996   1.007   1.008   1.013   1.017   1.022
  1.025   1.030   1.038   1.046   1.048   1.052   1.058   1.062
  1.068   1.071   1.083   1.083   1.090   1.101   1.107   1.112
  1.116   1.126   1.132   1.144   1.150   1.156   1.165   1.169
  1.174   1.182   1.187   1.191   1.193   1.209   1.217   1.244
  1.246   1.255   1.268   1.278   1.285   1.295   1.306   1.309
  1.322   1.329   1.338   1.363   1.368   1.382   1.385   1.390
  1.406   1.413   1.432   1.440   1.459   1.480   1.491   1.517
  1.530   1.558   1.573   1.586   1.604   1.628   1.632   1.644
  1.663   1.678   1.689   1.720   1.753   1.759   1.793   1.800
  1.804   1.820   1.838   1.894   1.937   1.948   1.978   1.981
  1.996   2.014   2.046
 --------------------------------------------------------------
 
          Ground-State Mulliken Net Atomic Charges

     Atom                 Charge (a.u.)
  ----------------------------------------
      1 N                    -0.705382
      2 C                    -0.156086
      3 H                     0.286586
      4 H                     0.309885
      5 C                     0.574358
      6 H                     0.151205
      7 H                     0.151881
      8 N                    -0.652284
      9 C                    -0.000673
     10 H                     0.351718
     11 C                     0.546133
     12 N                    -0.651621
     13 C                    -0.024507
     14 H                     0.371755
     15 C                     0.532492
     16 N                    -0.650004
     17 C                    -0.023229
     18 H                     0.364009
     19 C                     0.591102
     20 N                    -0.647427
     21 C                    -0.206852
     22 H                     0.372562
     23 C                     0.527235
     24 H                     0.216605
     25 H                     0.254960
     26 O                    -0.535002
     27 H                     0.403901
     28 O                    -0.525086
     29 O                    -0.522465
     30 O                    -0.483931
     31 O                    -0.559854
     32 O                    -0.393456
     33 C                    -0.313178
     34 H                     0.211208
     35 C                     0.283534
     36 H                     0.158130
     37 H                     0.189820
     38 C                    -0.083666
     39 N                    -0.403243
     40 H                     0.138741
     41 C                     0.232977
     42 N                    -0.702255
     43 H                     0.164390
     44 H                     0.375058
     45 C                    -0.026268
     46 H                     0.196177
     47 O                    -0.618183
     48 H                     0.193138
     49 H                     0.156545
     50 H                     0.381328
     51 C                    -0.228024
     52 H                     0.187917
     53 C                    -0.101654
     54 H                     0.168951
     55 H                     0.147859
     56 C                    -0.410339
     57 H                     0.122946
     58 H                     0.145017
     59 H                     0.140974
     60 C                    -0.416611
     61 H                     0.141728
     62 H                     0.118692
     63 H                     0.157583
     64 H                     0.147805
     65 C                     0.117357
     66 C                    -0.427008
     67 C                     0.531348
     68 H                     0.216607
     69 H                     0.212171
     70 O                    -0.609916
     71 H                     0.433485
     72 O                    -0.372059
     73 O                    -0.389780
     74 C                    -0.480057
     75 C                     0.501940
     76 H                     0.152568
     77 H                     0.175767
     78 H                     0.158105
     79 N                    -0.664259
     80 C                    -0.093493
     81 H                     0.363599
     82 C                    -0.493371
     83 H                     0.158062
     84 H                     0.212010
     85 S                     0.272705
     86 H                     0.198633
     87 H                     0.168394
     88 O                    -0.468433
  ----------------------------------------
  Sum of atomic charges =    -0.000000

 -----------------------------------------------------------------
                    Cartesian Multipole Moments
 -----------------------------------------------------------------
    Charge (ESU x 10^10)
                -0.0000
    Dipole Moment (Debye)
         X       2.2969      Y      -4.8272      Z      -2.2636
       Tot       5.8053
    Quadrupole Moments (Debye-Ang)
        XX    -274.8634     XY      25.0173     YY    -381.6150
        XZ      -4.3178     YZ      24.1838     ZZ    -286.7930
    Octopole Moments (Debye-Ang^2)
       XXX     245.5736    XXY      20.0560    XYY     -23.9702
       YYY     -96.3779    XXZ    -270.6549    XYZ     -19.3949
       YYZ    -137.3251    XZZ      75.0852    YZZ      14.3113
       ZZZ     -42.8618
    Hexadecapole Moments (Debye-Ang^3)
      XXXX  -31634.0141   XXXY     753.2073   XXYY   -9571.4693
      XYYY    1224.7971   YYYY  -19376.9155   XXXZ    -315.4191
      XXYZ     805.8969   XYYZ     -28.2151   YYYZ    1326.6179
      XXZZ   -6510.5266   XYZZ     560.1115   YYZZ   -3480.3208
      XZZZ     105.6099   YZZZ     737.8560   ZZZZ   -2894.4997
 -----------------------------------------------------------------
 Calculating analytic gradient of the SCF energy
 Gradient of SCF Energy
            1           2           3           4           5           6
    1   0.0001580  -0.0005758   0.0001604   0.0000662   0.0001014   0.0000392
    2   0.0002128  -0.0000079  -0.0000411  -0.0002749   0.0002636   0.0000012
    3   0.0014796  -0.0006600  -0.0005683  -0.0005095   0.0006193   0.0000589
            7           8           9          10          11          12
    1   0.0000866   0.0000018   0.0001497  -0.0001285  -0.0002771   0.0006334
    2  -0.0000477  -0.0002235   0.0007246  -0.0003742  -0.0009116  -0.0000382
    3   0.0000373  -0.0014469  -0.0001691   0.0015687  -0.0000313  -0.0003785
           13          14          15          16          17          18
    1  -0.0008234  -0.0001149  -0.0003695   0.0003825   0.0001674  -0.0002697
    2  -0.0002039  -0.0000046   0.0007676  -0.0002387   0.0000652   0.0000371
    3  -0.0002000   0.0001576   0.0002315   0.0003554  -0.0003842  -0.0003431
           19          20          21          22          23          24
    1  -0.0002700   0.0005337  -0.0000917  -0.0001449  -0.0002797  -0.0000173
    2  -0.0001800   0.0002836   0.0002050  -0.0001983   0.0002730  -0.0000141
    3   0.0006761  -0.0000157   0.0003240  -0.0001362  -0.0003267  -0.0002555
           25          26          27          28          29          30
    1  -0.0000194   0.0002732  -0.0000442   0.0001287  -0.0000372   0.0001488
    2   0.0000595   0.0000100  -0.0000363   0.0001063   0.0008241  -0.0003942
    3   0.0000091   0.0000426   0.0000756  -0.0000852  -0.0001641  -0.0000343
           31          32          33          34          35          36
    1  -0.0000072   0.0000633  -0.0000920   0.0001945  -0.0001713   0.0000497
    2   0.0000606  -0.0001178   0.0000740   0.0000572  -0.0002292   0.0000614
    3  -0.0002740   0.0000653  -0.0002628  -0.0000116   0.0003793   0.0000310
           37          38          39          40          41          42
    1   0.0001425   0.0000982  -0.0001270   0.0000038   0.0001550  -0.0000716
    2  -0.0001040  -0.0001606   0.0000651  -0.0001116   0.0002876  -0.0001624
    3  -0.0000207  -0.0001050   0.0001452  -0.0001279  -0.0000761   0.0003351
           43          44          45          46          47          48
    1  -0.0000109   0.0000555  -0.0008070   0.0001114   0.0004704  -0.0002561
    2  -0.0000265  -0.0000223  -0.0000832  -0.0000179   0.0019834   0.0005272
    3  -0.0000128  -0.0002129  -0.0012871   0.0001282   0.0026474   0.0002391
           49          50          51          52          53          54
    1  -0.0000319   0.0007605   0.0001368   0.0000105  -0.0001834  -0.0000131
    2  -0.0001267  -0.0001910   0.0000055   0.0000005  -0.0000624  -0.0000959
    3   0.0000081  -0.0008609   0.0002832   0.0000773  -0.0001659   0.0000071
           55          56          57          58          59          60
    1   0.0000409   0.0001342  -0.0000553  -0.0000234  -0.0000086   0.0001236
    2   0.0000415  -0.0000577   0.0000082  -0.0000166   0.0000309   0.0000771
    3  -0.0000815   0.0001239  -0.0000318  -0.0000209  -0.0000397   0.0000384
           61          62          63          64          65          66
    1   0.0000128  -0.0000232   0.0000137  -0.0000344  -0.0015880   0.0000452
    2   0.0000572   0.0000037   0.0000037  -0.0000291  -0.0002611   0.0010925
    3  -0.0000277   0.0000405   0.0000159  -0.0000103  -0.0001838   0.0009017
           67          68          69          70          71          72
    1   0.0004180   0.0000950  -0.0009819  -0.0000492   0.0000896   0.0007985
    2   0.0000543  -0.0000257  -0.0013756  -0.0000572  -0.0001385  -0.0001927
    3  -0.0003296   0.0000471  -0.0020900  -0.0000201   0.0002628   0.0002914
           73          74          75          76          77          78
    1  -0.0000057  -0.0001795   0.0002457  -0.0001627   0.0001495  -0.0002911
    2  -0.0001120  -0.0002362   0.0004826   0.0002559  -0.0000632  -0.0002182
    3   0.0002508  -0.0000422  -0.0000153  -0.0000047   0.0000157  -0.0006387
           79          80          81          82          83          84
    1   0.0007372  -0.0001020  -0.0002971   0.0003270   0.0001267  -0.0001461
    2   0.0002269  -0.0003146  -0.0005900  -0.0000872   0.0001711   0.0000671
    3  -0.0003052   0.0001626   0.0003107   0.0000232  -0.0000730  -0.0000001
           85          86          87          88
    1   0.0007921  -0.0001385  -0.0000363  -0.0000751
    2   0.0004311  -0.0012660   0.0000081  -0.0002259
    3  -0.0002435   0.0009514  -0.0003169   0.0001834
 Max gradient component =       2.647E-03
 RMS gradient           =       4.417E-04
 Gradient time:  CPU 207.50 s  wall 35.10 s
-Performing force calculation on product structure in state0
 ----------------------------------------------------------------
             Standard Nuclear Orientation (Angstroms)
    I     Atom           X                Y                Z
 ----------------------------------------------------------------
    1      N       9.0213238998    -0.5434469331     0.4410729433
    2      C       7.7400940164    -0.1417957082    -0.1091695045
    3      H       9.8076026430     0.0473806987     0.2110059729
    4      H       9.2042206315    -1.5357125356     0.3532710676
    5      C       6.7104718696    -1.2149270436     0.2160035327
    6      H       7.7230636211    -0.0202810193    -1.2129374691
    7      H       7.4261413762     0.8220637348     0.3116486632
    8      N       5.4559839095    -0.7866206729     0.4856280670
    9      C       4.3183095427    -1.6754964209     0.6927965849
   10      H       5.2257304356     0.2027088503     0.5125990825
   11      C       3.0739552922    -0.7954966827     0.5590524132
   12      N       1.8815303906    -1.4350877718     0.4822967139
   13      C       0.6258798172    -0.7111276850     0.3268743214
   14      H       1.8020229612    -2.4468913806     0.3953339891
   15      C      -0.4508912910    -1.7624905214    -0.0181256688
   16      N      -1.6991789785    -1.2667265696    -0.1774533487
   17      C      -2.8777466798    -2.0732214640    -0.5182183731
   18      H      -1.8554390919    -0.2824532130    -0.0108274475
   19      C      -3.9964214762    -1.5449736785     0.3803604634
   20      N      -4.7020340148    -2.4318018872     1.1055496159
   21      C      -5.8027437906    -2.0171749966     1.9611911164
   22      H      -4.5182012304    -3.4299852325     1.0759754347
   23      C      -6.4355518354    -3.2627302234     2.5635903056
   24      H      -6.5440798229    -1.4503414267     1.3819756617
   25      H      -5.4447283108    -1.3500601508     2.7572514030
   26      O      -7.5123807677    -3.0600317815     3.3855204664
   27      H      -7.7711109904    -2.1220244127     3.4991026205
   28      O       7.0272057602    -2.4365267077     0.1807963467
   29      O       3.1633949631     0.4607008243     0.5686782437
   30      O      -0.1552494866    -2.9766907516    -0.1342739780
   31      O      -4.2549373417    -0.3038537487     0.4624241880
   32      O      -6.0228240347    -4.3961317158     2.3370961727
   33      C       4.3516139460    -2.4267219491     2.0862486064
   34      H       4.3136121758    -2.4351934577    -0.0984890245
   35      C       4.4522457498    -3.9101324418     1.9602530217
   36      H       3.4484579322    -2.1875988318     2.6578203083
   37      H       5.1978384403    -2.0124328632     2.6491256829
   38      C       3.6514358270    -4.9427630640     2.4145624621
   39      N       4.1857441057    -6.1743154173     2.0390160833
   40      H       2.7405655214    -4.8825122127     2.9886945068
   41      C       5.2965169338    -5.8843730961     1.3588035605
   42      N       5.5013317253    -4.5280199544     1.2846727510
   43      H       5.9629279842    -6.6046625633     0.9149172071
   44      H       6.2445531800    -4.0050728857     0.8184154183
   45      C       0.3168198027     0.1110189906     1.6001867141
   46      H       0.7150891351    -0.0035236122    -0.5103070696
   47      O      -0.9531044414     0.8535856492     1.4260242396
   48      H       1.1260647615     0.8204869337     1.7755422365
   49      H       0.1526023992    -0.5344587813     2.4627184105
   50      H      -0.3073458474     8.6168326542    -2.2078966348
   51      C      -3.1767645141    -1.9517956400    -2.0408590899
   52      H      -2.6394556184    -3.1110649789    -0.2698430527
   53      C      -4.2830440159    -2.8561293939    -2.6481534255
   54      H      -2.2262872289    -2.1977532313    -2.5314807684
   55      H      -3.3887983744    -0.8986411416    -2.2642697466
   56      C      -5.7198853900    -2.3777124135    -2.3530813656
   57      H      -5.9928869839    -2.5166423499    -1.3004900838
   58      H      -6.4392198756    -2.9502928555    -2.9500084699
   59      H      -5.8456431664    -1.3178953788    -2.6016555603
   60      C      -4.0909388148    -4.3453009940    -2.2941768237
   61      H      -4.1426749054    -2.7639522173    -3.7357596550
   62      H      -4.3124955462    -4.5507552111    -1.2388626797
   63      H      -3.0641244056    -4.6757701075    -2.4914575194
   64      H      -4.7656371801    -4.9716803371    -2.8877119299
   65      C      -0.9230825302     2.1964300937     1.0913748685
   66      C      -2.3275478276     2.7208979241     0.8975245042
   67      C      -2.6643310692     2.7226173848    -0.6077645598
   68      H      -2.3596623577     3.7550858553     1.2425265705
   69      H      -3.0345469879     2.1143314016     1.4667252586
   70      O      -3.3023417862     1.6209398919    -1.0821228311
   71      H      -3.7043767621     0.9745381501    -0.4216435102
   72      O       0.1187522633     2.8322850546     0.9306042211
   73      O      -2.3220780860     3.6443395637    -1.3441009610
   74      C       3.3382040342     3.4133882576    -0.9682509739
   75      C       2.5984032044     4.5626635521    -1.6261808760
   76      H       4.2488447028     3.7838963419    -0.4869838819
   77      H       3.6566133847     2.7115206548    -1.7485264895
   78      H       2.7433508444     2.8628753205    -0.2373000953
   79      N       1.2603075472     4.6453575869    -1.3402747815
   80      C       0.3910020602     5.6460578311    -1.9602720369
   81      H       0.8531129392     3.9998041518    -0.6749229150
   82      C      -0.2871625012     6.5136430019    -0.8981046278
   83      H      -0.3738219985     5.1607925220    -2.5774072212
   84      H       1.0327901060     6.2465096185    -2.6107104687
   85      S      -1.3502048631     7.9052314572    -1.6542622590
   86      H       0.4431775306     6.9612763183    -0.2208433102
   87      H      -1.0065939062     5.9267290362    -0.3223030677
   88      O       3.1774885077     5.3594580815    -2.4030674801
 ----------------------------------------------------------------
 Nuclear Repulsion Energy =  6119.3799248211 hartrees
 There are      179 alpha and      179 beta electrons
 Applying Cartesian multipole field
    Component          Value
    ---------          -----
     (2,0,0)        1.00000E-12
     (0,2,0)        2.00000E-12
     (0,0,2)       -3.00000E-11
 Nucleus-field energy     =    -0.0000000372 hartrees
 Requested basis set is 6-31G
 There are 223 shells and 502 basis functions
 A cutoff of  1.0D-11 yielded   9160 shell pairs
 There are     51796 function pairs
 Smallest overlap matrix eigenvalue = 1.79E-03
 Guess from superposition of atomic densities
 Warning:  Energy on first SCF cycle will be non-variational
 SAD guess density has 358.000001 electrons

 -----------------------------------------------------------------------
  General SCF calculation program by
  Eric Jon Sundstrom, Paul Horn, Yuezhi Mao, Dmitri Zuev, Alec White,
  David Stuck, Shaama M.S., Shane Yost, Joonho Lee, David Small,
  Daniel Levine, Susi Lehtola, Hugh Burton, Evgeny Epifanovsky
 -----------------------------------------------------------------------
 Exchange:     0.2000 Hartree-Fock + 0.0800 Slater + 0.7200 B88
 Correlation:  0.1900 VWN1RPA + 0.8100 LYP
 Using SG-1 standard quadrature grid
 using 8 threads for integral computing
 -------------------------------------------------------
 OpenMP Integral computing Module                
 Release: version 1.0, May 2013, Q-Chem Inc. Pittsburgh 
 -------------------------------------------------------
 -------------------------------------------------------
 OpenMP BLAS3 based DFT computing Module                
 Release: version 1.0, May 2013, Q-Chem Inc. Pittsburgh 
 -------------------------------------------------------
 A restricted SCF calculation will be
 performed using DIIS
 SCF converges when DIIS error is below 1.0e-08
 ---------------------------------------
  Cycle       Energy         DIIS error
 ---------------------------------------
    1   -2688.5460607086      4.35e-02  
    2   -2677.9956829107      6.25e-03  
    3   -2672.9810025203      1.35e-02  
    4   -2678.5869087094      4.13e-03  
    5   -2679.0728084806      8.33e-04  
    6   -2679.0814867796      8.06e-04  
    7   -2679.0982959090      2.38e-04  
    8   -2679.0995522661      8.96e-05  
    9   -2679.0997334616      3.00e-05  
   10   -2679.0997547383      1.23e-05  
   11   -2679.0997584174      3.31e-06  
   12   -2679.0997586726      1.41e-06  
   13   -2679.0997587189      5.84e-07  
   14   -2679.0997587270      2.20e-07  
   15   -2679.0997587283      6.39e-08  
   16   -2679.0997587284      2.63e-08  
   17   -2679.0997587284      9.01e-09  Convergence criterion met
 ---------------------------------------
 SCF time:   CPU 870.08s  wall 111.00s 
 SCF   energy in the final basis set =    -2679.0997587284
 Total energy in the final basis set =    -2679.0997587284
 
 --------------------------------------------------------------
 
                    Orbital Energies (a.u.)
 --------------------------------------------------------------
 
 Alpha MOs
 -- Occupied --
-88.844 -19.249 -19.246 -19.202 -19.200 -19.199 -19.191 -19.165
-19.163 -19.160 -19.141 -19.083 -14.432 -14.402 -14.401 -14.383
-14.367 -14.333 -14.308 -14.305 -10.391 -10.384 -10.364 -10.360
-10.341 -10.336 -10.318 -10.304 -10.290 -10.287 -10.284 -10.269
-10.268 -10.251 -10.233 -10.229 -10.219 -10.217 -10.217 -10.216
-10.206 -10.199 -10.193 -10.193 -10.190 -10.164  -7.924  -5.889
 -5.884  -5.876  -1.167  -1.159  -1.125  -1.112  -1.093  -1.092
 -1.085  -1.078  -1.064  -1.048  -1.010  -1.008  -0.999  -0.979
 -0.973  -0.955  -0.901  -0.889  -0.864  -0.855  -0.841  -0.823
 -0.821  -0.803  -0.781  -0.779  -0.756  -0.728  -0.727  -0.711
 -0.708  -0.703  -0.686  -0.678  -0.675  -0.670  -0.649  -0.644
 -0.636  -0.626  -0.612  -0.609  -0.604  -0.602  -0.591  -0.583
 -0.576  -0.568  -0.566  -0.554  -0.553  -0.550  -0.547  -0.545
 -0.537  -0.532  -0.525  -0.517  -0.507  -0.503  -0.497  -0.490
 -0.488  -0.487  -0.486  -0.481  -0.476  -0.475  -0.471  -0.469
 -0.465  -0.464  -0.456  -0.454  -0.452  -0.449  -0.447  -0.444
 -0.443  -0.439  -0.437  -0.430  -0.427  -0.427  -0.426  -0.424
 -0.414  -0.414  -0.408  -0.408  -0.405  -0.404  -0.397  -0.395
 -0.395  -0.391  -0.388  -0.386  -0.375  -0.373  -0.373  -0.369
 -0.365  -0.359  -0.357  -0.354  -0.351  -0.345  -0.340  -0.333
 -0.330  -0.328  -0.327  -0.324  -0.309  -0.304  -0.302  -0.298
 -0.295  -0.290  -0.282  -0.280  -0.266  -0.243  -0.231  -0.223
 -0.222  -0.221  -0.220
 -- Virtual --
 -0.070  -0.063  -0.055  -0.033  -0.024  -0.018  -0.005  -0.004
  0.028   0.029   0.033   0.038   0.049   0.051   0.061   0.066
  0.069   0.071   0.074   0.085   0.087   0.092   0.095   0.097
  0.103   0.104   0.107   0.109   0.117   0.119   0.125   0.127
  0.133   0.134   0.137   0.138   0.140   0.143   0.145   0.147
  0.149   0.151   0.152   0.158   0.160   0.162   0.163   0.167
  0.169   0.173   0.175   0.176   0.181   0.185   0.186   0.187
  0.189   0.192   0.194   0.194   0.200   0.203   0.210   0.212
  0.213   0.218   0.225   0.230   0.231   0.236   0.238   0.243
  0.245   0.247   0.254   0.257   0.261   0.270   0.285   0.287
  0.302   0.311   0.312   0.318   0.320   0.323   0.330   0.339
  0.350   0.356   0.363   0.377   0.380   0.389   0.392   0.395
  0.408   0.422   0.428   0.447   0.459   0.461   0.473   0.479
  0.487   0.491   0.494   0.502   0.506   0.518   0.522   0.524
  0.526   0.534   0.536   0.538   0.541   0.544   0.545   0.552
  0.555   0.560   0.564   0.569   0.569   0.573   0.575   0.577
  0.578   0.580   0.584   0.585   0.594   0.595   0.601   0.608
  0.611   0.616   0.625   0.630   0.631   0.632   0.634   0.643
  0.646   0.648   0.649   0.650   0.656   0.656   0.658   0.666
  0.670   0.673   0.679   0.681   0.685   0.688   0.691   0.697
  0.700   0.701   0.717   0.719   0.724   0.726   0.728   0.730
  0.737   0.740   0.749   0.753   0.759   0.765   0.768   0.778
  0.785   0.789   0.796   0.806   0.810   0.813   0.814   0.825
  0.828   0.832   0.835   0.837   0.839   0.843   0.847   0.850
  0.853   0.855   0.856   0.860   0.863   0.866   0.869   0.872
  0.880   0.884   0.888   0.893   0.894   0.896   0.905   0.910
  0.912   0.913   0.917   0.924   0.926   0.930   0.932   0.935
  0.937   0.941   0.943   0.946   0.950   0.951   0.953   0.955
  0.959   0.960   0.962   0.970   0.972   0.979   0.983   0.987
  0.990   1.002   1.004   1.012   1.013   1.017   1.018   1.026
  1.033   1.035   1.042   1.045   1.049   1.061   1.066   1.069
  1.074   1.076   1.080   1.082   1.091   1.097   1.107   1.108
  1.114   1.129   1.132   1.137   1.145   1.150   1.167   1.177
  1.181   1.183   1.191   1.202   1.208   1.236   1.244   1.254
  1.260   1.287   1.289   1.292   1.295   1.304   1.313   1.319
  1.340   1.346   1.352   1.363   1.379   1.388   1.406   1.423
  1.431   1.436   1.458   1.470   1.484   1.488   1.516   1.529
  1.555   1.568   1.582   1.609   1.636   1.646   1.653   1.657
  1.662   1.676   1.704   1.707   1.751   1.777   1.797   1.818
  1.826   1.841   1.881   1.927   1.936   1.985   1.992   1.998
  2.018   2.026   2.071
 --------------------------------------------------------------
 
          Ground-State Mulliken Net Atomic Charges

     Atom                 Charge (a.u.)
  ----------------------------------------
      1 N                    -0.708476
      2 C                    -0.154088
      3 H                     0.287119
      4 H                     0.308632
      5 C                     0.578354
      6 H                     0.151157
      7 H                     0.152031
      8 N                    -0.652054
      9 C                     0.000321
     10 H                     0.358422
     11 C                     0.526781
     12 N                    -0.661385
     13 C                    -0.025104
     14 H                     0.369928
     15 C                     0.532929
     16 N                    -0.639659
     17 C                    -0.051358
     18 H                     0.352147
     19 C                     0.627911
     20 N                    -0.649082
     21 C                    -0.163382
     22 H                     0.374891
     23 C                     0.525253
     24 H                     0.214016
     25 H                     0.211781
     26 O                    -0.533185
     27 H                     0.395026
     28 O                    -0.529874
     29 O                    -0.488468
     30 O                    -0.474354
     31 O                    -0.571090
     32 O                    -0.380226
     33 C                    -0.302456
     34 H                     0.200471
     35 C                     0.292317
     36 H                     0.156974
     37 H                     0.185002
     38 C                    -0.088040
     39 N                    -0.405525
     40 H                     0.129479
     41 C                     0.230539
     42 N                    -0.707623
     43 H                     0.161061
     44 H                     0.378548
     45 C                    -0.042830
     46 H                     0.210975
     47 O                    -0.522034
     48 H                     0.236217
     49 H                     0.178992
     50 H                     0.050765
     51 C                    -0.228908
     52 H                     0.193253
     53 C                    -0.102082
     54 H                     0.160187
     55 H                     0.164842
     56 C                    -0.410943
     57 H                     0.116943
     58 H                     0.144506
     59 H                     0.147035
     60 C                    -0.412874
     61 H                     0.144756
     62 H                     0.118063
     63 H                     0.151109
     64 H                     0.147312
     65 C                     0.533154
     66 C                    -0.382634
     67 C                     0.510436
     68 H                     0.219629
     69 H                     0.194382
     70 O                    -0.588349
     71 H                     0.436726
     72 O                    -0.396266
     73 O                    -0.373395
     74 C                    -0.487682
     75 C                     0.511973
     76 H                     0.159888
     77 H                     0.161030
     78 H                     0.170010
     79 N                    -0.660011
     80 C                    -0.071572
     81 H                     0.350744
     82 C                    -0.472554
     83 H                     0.181239
     84 H                     0.182192
     85 S                    -0.004055
     86 H                     0.177413
     87 H                     0.177553
     88 O                    -0.490800
  ----------------------------------------
  Sum of atomic charges =    -0.000000

 -----------------------------------------------------------------
                    Cartesian Multipole Moments
 -----------------------------------------------------------------
    Charge (ESU x 10^10)
                -0.0000
    Dipole Moment (Debye)
         X      -8.0025      Y      -2.8328      Z       4.5679
       Tot       9.6401
    Quadrupole Moments (Debye-Ang)
        XX    -240.2083     XY      10.6101     YY    -395.5182
        XZ     -23.0319     YZ      53.0653     ZZ    -286.6987
    Octopole Moments (Debye-Ang^2)
       XXX    -275.5429    XXY      75.8677    XYY     -83.1004
       YYY     182.7231    XXZ     -17.6207    XYZ       0.2325
       YYZ     -76.8418    XZZ    -159.2784    YZZ      29.6566
       ZZZ     -55.1580
    Hexadecapole Moments (Debye-Ang^3)
      XXXX  -25411.3578   XXXY    -173.0914   XXYY  -10414.6257
      XYYY     688.4586   YYYY  -26872.4452   XXXZ   -1881.4255
      XXYZ    1886.2864   XYYZ     -12.3857   YYYZ    4099.7161
      XXZZ   -5778.0418   XYZZ      20.2082   YYZZ   -5116.4066
      XZZZ    -617.2084   YZZZ    2729.2409   ZZZZ   -4285.5974
 -----------------------------------------------------------------
 Calculating analytic gradient of the SCF energy
 Gradient of SCF Energy
            1           2           3           4           5           6
    1  -0.0005503   0.0003639   0.0000625   0.0000528   0.0003130  -0.0000369
    2   0.0003006  -0.0001314  -0.0001574  -0.0000467  -0.0001704   0.0001504
    3   0.0001239  -0.0000375   0.0000062  -0.0000508   0.0006998  -0.0001497
            7           8           9          10          11          12
    1  -0.0002482  -0.0005405  -0.0002228  -0.0000973  -0.0004398   0.0006744
    2   0.0005216  -0.0007766   0.0005287   0.0000189   0.0000634   0.0007749
    3  -0.0002876   0.0000879   0.0013728   0.0001463  -0.0030657   0.0001407
           13          14          15          16          17          18
    1   0.0001117  -0.0001136  -0.0007851   0.0006569  -0.0004331  -0.0004819
    2   0.0002895  -0.0000311  -0.0000101  -0.0002827   0.0007947  -0.0003203
    3   0.0021531  -0.0003819  -0.0026409   0.0017078  -0.0009445  -0.0001335
           19          20          21          22          23          24
    1   0.0020466  -0.0010141   0.0005038  -0.0001729   0.0007353  -0.0001106
    2   0.0008830  -0.0006063   0.0000623   0.0000181  -0.0002068   0.0001558
    3   0.0017480   0.0006037  -0.0005704   0.0000285   0.0002639   0.0001491
           25          26          27          28          29          30
    1  -0.0000634  -0.0005239   0.0000012  -0.0000467  -0.0002679  -0.0000070
    2   0.0000599   0.0000834   0.0000545  -0.0000190   0.0002551  -0.0002400
    3  -0.0001166   0.0001240  -0.0000722  -0.0003433   0.0009621   0.0003462
           31          32          33          34          35          36
    1  -0.0004798  -0.0001437  -0.0002221   0.0001320   0.0003855  -0.0000486
    2  -0.0010970   0.0001970  -0.0010917  -0.0003349   0.0003376   0.0001513
    3  -0.0000186  -0.0001595   0.0002890   0.0000664   0.0001468  -0.0003030
           37          38          39          40          41          42
    1   0.0001067  -0.0003363   0.0000507   0.0000740  -0.0002154   0.0004334
    2   0.0001495   0.0002857  -0.0003344  -0.0001864   0.0004000  -0.0001047
    3   0.0002718   0.0000886   0.0002007   0.0000006  -0.0001217  -0.0004423
           43          44          45          46          47          48
    1   0.0000275  -0.0000091   0.0001441  -0.0001024   0.0001599   0.0001822
    2   0.0000660   0.0002215   0.0001905  -0.0001280  -0.0007951   0.0002359
    3   0.0000081  -0.0000471  -0.0001441  -0.0002558   0.0006329   0.0001369
           49          50          51          52          53          54
    1  -0.0000383  -0.0002000   0.0004148   0.0001962  -0.0004690   0.0001647
    2   0.0002534  -0.0001250  -0.0001404  -0.0000041  -0.0005940  -0.0002029
    3  -0.0001387   0.0001050  -0.0003836  -0.0002348   0.0000307  -0.0002134
           55          56          57          58          59          60
    1  -0.0000010  -0.0002442  -0.0002868  -0.0000447  -0.0001162   0.0000074
    2  -0.0000705   0.0000904   0.0001456   0.0000802  -0.0000439  -0.0000029
    3   0.0003111  -0.0000969  -0.0005338  -0.0000519   0.0000834   0.0000302
           61          62          63          64          65          66
    1  -0.0000346   0.0001969   0.0000876   0.0001631  -0.0001781   0.0004111
    2   0.0000997  -0.0000422  -0.0000412   0.0001177   0.0004233  -0.0004416
    3   0.0000885  -0.0002244   0.0001412   0.0000513  -0.0008598  -0.0009429
           67          68          69          70          71          72
    1   0.0017113  -0.0000549  -0.0004245   0.0008513  -0.0011828   0.0005124
    2  -0.0006339  -0.0003385   0.0002852  -0.0000829   0.0010074   0.0000970
    3  -0.0006911   0.0002163   0.0003411  -0.0001883   0.0005149   0.0000832
           73          74          75          76          77          78
    1  -0.0010127  -0.0003230  -0.0007085   0.0007778   0.0002672   0.0001468
    2   0.0008304   0.0010703  -0.0004217  -0.0012816   0.0000370  -0.0001836
    3   0.0002516   0.0005750  -0.0007885   0.0000759  -0.0002636  -0.0001744
           79          80          81          82          83          84
    1  -0.0004263   0.0003749   0.0000369  -0.0000501  -0.0001622   0.0000461
    2   0.0008035  -0.0003341  -0.0002680   0.0001344  -0.0000593  -0.0000528
    3   0.0003120   0.0009418   0.0001514   0.0003810  -0.0008214  -0.0001995
           85          86          87          88
    1   0.0002568   0.0000853  -0.0002214  -0.0000338
    2  -0.0000153  -0.0000883  -0.0001839  -0.0000017
    3  -0.0000608  -0.0001560  -0.0001940   0.0003133
 Max gradient component =       3.066E-03
 RMS gradient           =       5.331E-04
 Gradient time:  CPU 198.77 s  wall 34.34 s

STARTING FREEZING STRING ITERATION # 1
 The distance between the innermost nodes (Angstroms): 18.517
-Adding two new nodes
 The distance between the previous and current R_nodes (Angstroms): 1.5267
 The distance between the previous and current P_nodes (Angstroms): 1.4696
-Optimizing new reactant side node
 Using BFGS, step: 2 E_tol 0.0131
 max_steps 3, node_spacing 1.5431, sigma 0.7000
 ----------------------------------------------------------------
             Standard Nuclear Orientation (Angstroms)
    I     Atom           X                Y                Z
 ----------------------------------------------------------------
    1      N       9.0947948571    -0.4622301978    -0.5664704703
    2      C       7.7784146613     0.0377982441    -0.9189728102
    3      H       9.8762304444     0.0538507432    -0.9465398179
    4      H       9.1749398704    -1.4680602377    -0.6600680147
    5      C       6.7299674486    -0.9694773154    -0.4716585025
    6      H       7.6155104714     0.1986138444    -2.0051022380
    7      H       7.5984994613     1.0037674046    -0.4299371142
    8      N       5.5187281750    -0.4758697640    -0.1200160221
    9      C       4.3909347854    -1.3324403228     0.2197053588
   10      H       5.3270125003     0.5190821016    -0.1165603194
   11      C       3.1341061793    -0.4654519605     0.1819138345
   12      N       1.9633894907    -1.0895962892     0.4278653767
   13      C       0.6797069425    -0.3946530747     0.4160810320
   14      H       1.9033697980    -2.0953170034     0.5820881834
   15      C      -0.4101837281    -1.4642913318     0.3004464032
   16      N      -1.6354157690    -1.0159918273    -0.0469467501
   17      C      -2.7789857430    -1.9090662567    -0.2888591813
   18      H      -1.7985706328    -0.0343481759    -0.2339883141
   19      C      -4.0029664625    -1.0315961230    -0.0573472570
   20      N      -5.0458687244    -1.5423441839     0.6109589578
   21      C      -6.2842905658    -0.8109691373     0.8494422623
   22      H      -5.0409832649    -2.4922669211     0.9720931538
   23      C      -7.1864775325    -1.6650062870     1.7199941610
   24      H      -6.7938099921    -0.5779659137    -0.0963101368
   25      H      -6.0660763765     0.1407863011     1.3487327435
   26      O      -8.3462697802    -1.0818593770     2.1445880764
   27      H      -8.4522214717    -0.1420676640     1.8874792897
   28      O       6.9772980897    -2.2063113117    -0.4796901952
   29      O       3.2058702803     0.7698905184    -0.0688872419
   30      O      -0.1415301432    -2.6737227766     0.5196987026
   31      O      -3.9837216020     0.1390833811    -0.5403955958
   32      O      -6.9055990668    -2.8208589511     2.0293139013
   33      C       4.5679703209    -2.0644890790     1.6104157262
   34      H       4.2994820579    -2.1037925838    -0.5553950228
   35      C       4.4868612883    -3.5502593049     1.4998535587
   36      H       3.8096544723    -1.7164775248     2.3190909946
   37      H       5.5401000267    -1.7560113862     2.0124328092
   38      C       3.6126075156    -4.4936978387     2.0083719794
   39      N       3.9813584855    -5.7713758401     1.5898800896
   40      H       2.7568565984    -4.3411684514     2.6464318134
   41      C       5.0651352218    -5.5985379884     0.8320147850
   42      N       5.4115740618    -4.2713380745     0.7486788821
   43      H       5.6152951169    -6.3824715589     0.3392959519
   44      H       6.1660320767    -3.8287773739     0.2263073819
   45      C       0.5298814764     0.4516297436     1.7003534747
   46      H       0.6394553602     0.2845644014    -0.4419610065
   47      O      -0.6871441028     1.2342742421     1.5339805764
   48      H       1.3687176582     1.1466682697     1.7694321036
   49      H       0.5188081603    -0.2031087359     2.5779391522
   50      H      -1.3350967630     1.7779740942     2.8769702397
   51      C      -2.6897950178    -2.5051244569    -1.7243423865
   52      H      -2.7418413652    -2.7163516102     0.4479135662
   53      C      -3.6520440684    -3.6585142681    -2.1163605177
   54      H      -1.6646450552    -2.8860031641    -1.7999005925
   55      H      -2.7847121968    -1.6798965381    -2.4416004975
   56      C      -5.0788971874    -3.2008982684    -2.4786808981
   57      H      -5.6347887456    -2.8578623748    -1.5995721453
   58      H      -5.6483328966    -4.0306628287    -2.9130608175
   59      H      -5.0614419638    -2.3850339348    -3.2106592845
   60      C      -3.6675288642    -4.7986039948    -1.0788636580
   61      H      -3.2167911134    -4.0713584472    -3.0391870705
   62      H      -4.1870633606    -4.5105154764    -0.1556974426
   63      H      -2.6508016898    -5.1053316417    -0.8080550647
   64      H      -4.1935632902    -5.6739929619    -1.4746842877
   65      C      -3.1180824396     3.7212490560    -1.0648175950
   66      C      -2.9998313179     3.3805909174     0.3921789662
   67      C      -4.3505299803     3.2420704921     1.0512173394
   68      H      -2.4513672471     4.1511292786     0.9339683199
   69      H      -2.4863153502     2.4186203235     0.4555769810
   70      O      -5.0945919812     2.1832779046     0.6373137581
   71      H      -4.6696161208     1.5425951521     0.0002754039
   72      O      -4.1293941081     3.9701413343    -1.6944227071
   73      O      -4.7254114605     4.0618306616     1.8787483364
   74      C       4.3443523586     3.9192160636     0.5360364230
   75      C       3.1534850494     4.5848380214    -0.1100740395
   76      H       4.1005267763     3.0486188764     1.1463654241
   77      H       4.8434521704     4.6427054351     1.1792381108
   78      H       5.0453582962     3.6015299624    -0.2429510007
   79      N       2.3040855734     3.7248383335    -0.7539240468
   80      C       1.1931728845     4.2231425552    -1.5508834398
   81      H       2.4519930722     2.7252964472    -0.6690992823
   82      C      -0.1312109963     3.8046415482    -0.9180183539
   83      H       1.2569408411     3.8550389138    -2.5816014055
   84      H       1.2649401481     5.3124539057    -1.5615461411
   85      S      -1.4369948294     4.5632165645    -2.0845251703
   86      H      -0.2011356354     4.1595354396     0.1103356477
   87      H      -0.2146170708     2.7179216358    -0.9488577404
   88      O       3.0381965441     5.8275972611    -0.1895492054
 ----------------------------------------------------------------
 Nuclear Repulsion Energy =  6187.9870917275 hartrees
 There are      179 alpha and      179 beta electrons
 Applying Cartesian multipole field
    Component          Value
    ---------          -----
     (2,0,0)        1.00000E-12
     (0,2,0)        2.00000E-12
     (0,0,2)       -3.00000E-11
 Nucleus-field energy     =    -0.0000000126 hartrees
 Requested basis set is 6-31G
 There are 223 shells and 502 basis functions
 A cutoff of  1.0D-11 yielded   9628 shell pairs
 There are     53866 function pairs
 Smallest overlap matrix eigenvalue = 1.79E-03
 Guess from superposition of atomic densities
 Warning:  Energy on first SCF cycle will be non-variational
 SAD guess density has 358.000001 electrons

 -----------------------------------------------------------------------
  General SCF calculation program by
  Eric Jon Sundstrom, Paul Horn, Yuezhi Mao, Dmitri Zuev, Alec White,
  David Stuck, Shaama M.S., Shane Yost, Joonho Lee, David Small,
  Daniel Levine, Susi Lehtola, Hugh Burton, Evgeny Epifanovsky
 -----------------------------------------------------------------------
 Exchange:     0.2000 Hartree-Fock + 0.0800 Slater + 0.7200 B88
 Correlation:  0.1900 VWN1RPA + 0.8100 LYP
 Using SG-1 standard quadrature grid
 using 8 threads for integral computing
 -------------------------------------------------------
 OpenMP Integral computing Module                
 Release: version 1.0, May 2013, Q-Chem Inc. Pittsburgh 
 -------------------------------------------------------
 -------------------------------------------------------
 OpenMP BLAS3 based DFT computing Module                
 Release: version 1.0, May 2013, Q-Chem Inc. Pittsburgh 
 -------------------------------------------------------
 A restricted SCF calculation will be
 performed using DIIS
 SCF converges when DIIS error is below 1.0e-08
 ---------------------------------------
  Cycle       Energy         DIIS error
 ---------------------------------------
    1   -2688.2359699785      4.33e-02  
    2   -2677.8063034107      6.33e-03  
    3   -2672.6686981650      1.36e-02  
    4   -2675.5530956498      7.68e-03  
    5   -2678.7647842377      2.50e-03  
    6   -2678.9431144462      7.17e-04  
    7   -2678.9515091173      4.19e-04  
    8   -2678.9556490235      2.06e-04  
    9   -2678.9562965255      1.64e-04  
   10   -2678.9569753389      4.91e-05  
   11   -2678.9570477718      2.28e-05  
   12   -2678.9570609778      8.99e-06  
   13   -2678.9570630313      3.06e-06  
   14   -2678.9570632670      1.19e-06  
   15   -2678.9570633080      4.20e-07  
   16   -2678.9570633128      1.63e-07  
   17   -2678.9570633135      5.08e-08  
   18   -2678.9570633136      1.60e-08  
   19   -2678.9570633136      5.15e-09  Convergence criterion met
 ---------------------------------------
 SCF time:   CPU 1037.36s  wall 132.00s 
 SCF   energy in the final basis set =    -2678.9570633136
 Total energy in the final basis set =    -2678.9570633136
 
 --------------------------------------------------------------
 
                    Orbital Energies (a.u.)
 --------------------------------------------------------------
 
 Alpha MOs
 -- Occupied --
-88.865 -19.239 -19.221 -19.192 -19.192 -19.191 -19.185 -19.172
-19.161 -19.153 -19.150 -19.104 -14.427 -14.410 -14.401 -14.392
-14.377 -14.350 -14.315 -14.313 -10.382 -10.359 -10.348 -10.345
-10.342 -10.338 -10.327 -10.291 -10.288 -10.287 -10.280 -10.279
-10.276 -10.241 -10.239 -10.237 -10.226 -10.225 -10.223 -10.220
-10.216 -10.215 -10.198 -10.191 -10.191 -10.184  -7.941  -5.905
 -5.902  -5.894  -1.158  -1.119  -1.109  -1.103  -1.099  -1.086
 -1.083  -1.073  -1.042  -1.032  -1.022  -1.017  -0.996  -0.981
 -0.973  -0.964  -0.922  -0.897  -0.872  -0.849  -0.832  -0.819
 -0.818  -0.803  -0.797  -0.775  -0.760  -0.744  -0.716  -0.709
 -0.706  -0.695  -0.687  -0.685  -0.673  -0.658  -0.647  -0.642
 -0.631  -0.621  -0.620  -0.615  -0.610  -0.593  -0.591  -0.590
 -0.584  -0.578  -0.554  -0.553  -0.546  -0.541  -0.537  -0.533
[...]
     11 C                     0.531333
     12 N                    -0.659543
     13 C                    -0.024262
     14 H                     0.367019
     15 C                     0.536276
     16 N                    -0.628264
     17 C                    -0.041428
     18 H                     0.346956
     19 C                     0.640098
     20 N                    -0.651044
     21 C                    -0.161091
     22 H                     0.372615
     23 C                     0.528728
     24 H                     0.213735
     25 H                     0.210495
     26 O                    -0.534994
     27 H                     0.395990
     28 O                    -0.528465
     29 O                    -0.503260
     30 O                    -0.484569
     31 O                    -0.590890
     32 O                    -0.382397
     33 C                    -0.306147
     34 H                     0.201139
     35 C                     0.289934
     36 H                     0.159936
     37 H                     0.184277
     38 C                    -0.085524
     39 N                    -0.406173
     40 H                     0.132320
     41 C                     0.230230
     42 N                    -0.705543
     43 H                     0.160497
     44 H                     0.377157
     45 C                    -0.020998
     46 H                     0.184667
     47 O                    -0.528909
     48 H                     0.192856
     49 H                     0.167802
     50 H                     0.041164
     51 C                    -0.224278
     52 H                     0.193856
     53 C                    -0.102503
     54 H                     0.164274
     55 H                     0.153521
     56 C                    -0.412379
     57 H                     0.118318
     58 H                     0.145127
     59 H                     0.146863
     60 C                    -0.413082
     61 H                     0.143140
     62 H                     0.117117
     63 H                     0.153957
     64 H                     0.147226
     65 C                     0.481245
     66 C                    -0.448019
     67 C                     0.490861
     68 H                     0.247312
     69 H                     0.237990
     70 O                    -0.564720
     71 H                     0.430327
     72 O                    -0.282687
     73 O                    -0.377700
     74 C                    -0.496549
     75 C                     0.516706
     76 H                     0.165353
     77 H                     0.173160
     78 H                     0.169830
     79 N                    -0.628794
     80 C                    -0.087159
     81 H                     0.307036
     82 C                    -0.491979
     83 H                     0.153191
     84 H                     0.211437
     85 S                     0.039564
     86 H                     0.191444
     87 H                     0.167255
     88 O                    -0.472689
  ----------------------------------------
  Sum of atomic charges =    -0.000000

 -----------------------------------------------------------------
                    Cartesian Multipole Moments
 -----------------------------------------------------------------
    Charge (ESU x 10^10)
                -0.0000
    Dipole Moment (Debye)
         X      -6.5754      Y      -2.2836      Z       2.5773
       Tot       7.4225
    Quadrupole Moments (Debye-Ang)
        XX    -246.2869     XY       8.8655     YY    -392.5666
        XZ     -23.2003     YZ      55.2760     ZZ    -288.4536
    Octopole Moments (Debye-Ang^2)
       XXX    -210.2041    XXY      62.5500    XYY    -112.1393
       YYY      79.0960    XXZ     -38.1578    XYZ     -31.3861
       YYZ     -11.4193    XZZ     -95.8714    YZZ      21.3792
       ZZZ     -74.5511
    Hexadecapole Moments (Debye-Ang^3)
      XXXX  -27170.3163   XXXY    -295.9922   XXYY  -10498.9661
      XYYY     360.8952   YYYY  -25219.2983   XXXZ   -1654.8375
      XXYZ    1870.9820   XYYZ      48.5842   YYYZ    4081.9330
      XXZZ   -6020.6521   XYZZ      34.6927   YYZZ   -4841.7264
      XZZZ    -304.1704   YZZZ    2220.8721   ZZZZ   -3893.9739
 -----------------------------------------------------------------
 Calculating analytic gradient of the SCF energy
 Gradient of SCF Energy
            1           2           3           4           5           6
    1  -0.0001228   0.0001126   0.0001849  -0.0005512   0.0008614   0.0004181
    2   0.0010070  -0.0011210   0.0002158   0.0004031   0.0004655  -0.0004268
    3   0.0002808  -0.0007455  -0.0001510  -0.0001662  -0.0001274  -0.0001809
            7           8           9          10          11          12
    1   0.0005886  -0.0002352   0.0007695   0.0005697   0.0032566  -0.0020263
    2  -0.0003093  -0.0011520   0.0025237  -0.0006138  -0.0014792   0.0034130
    3   0.0005883  -0.0002357   0.0018524   0.0013305  -0.0048568   0.0004717
           13          14          15          16          17          18
    1  -0.0019430   0.0019647  -0.0023170   0.0033441  -0.0002634  -0.0021776
    2   0.0020057  -0.0018338  -0.0021476   0.0037010   0.0037354  -0.0004076
    3  -0.0039457   0.0008451  -0.0031185   0.0034901  -0.0013760  -0.0049158
           19          20          21          22          23          24
    1   0.0032858  -0.0014888  -0.0021659   0.0033449  -0.0001187  -0.0016194
    2  -0.0023157   0.0112514   0.0020544   0.0017650   0.0004627   0.0000669
    3  -0.0076873   0.0024052  -0.0006228  -0.0011575   0.0005416   0.0006814
           25          26          27          28          29          30
    1  -0.0010020   0.0011033  -0.0002031  -0.0005742  -0.0011500   0.0017574
    2   0.0002150   0.0015366   0.0006205   0.0009784  -0.0071583   0.0007284
    3   0.0006780  -0.0013127   0.0002473   0.0002829   0.0021704   0.0010136
           31          32          33          34          35          36
    1   0.0010782   0.0025400   0.0002122  -0.0006527  -0.0000354  -0.0000563
    2  -0.0140301   0.0008708   0.0001721  -0.0000633  -0.0001058  -0.0002289
    3  -0.0002611  -0.0020618  -0.0002305  -0.0010899  -0.0003884   0.0000511
           37          38          39          40          41          42
    1  -0.0000292  -0.0002572  -0.0000564   0.0000065  -0.0003024   0.0003527
    2  -0.0000711   0.0003999   0.0004122  -0.0000949   0.0007840   0.0004217
    3   0.0003443   0.0002500   0.0003022   0.0000364  -0.0002139  -0.0000216
           43          44          45          46          47          48
    1   0.0000711   0.0001731   0.0158599  -0.0007006   0.0001401   0.0009336
    2   0.0002726  -0.0001015  -0.0128420  -0.0002982  -0.0258955  -0.0051747
    3  -0.0000842  -0.0000525   0.0123774   0.0014612   0.0216196  -0.0016308
           49          50          51          52          53          54
    1   0.0062655   0.0342125   0.0012636  -0.0034047   0.0000413   0.0005806
    2  -0.0062045   0.0366532   0.0005118  -0.0004612   0.0009431   0.0002437
    3   0.0018945   0.0425490   0.0001498   0.0016909   0.0007830  -0.0000233
           55          56          57          58          59          60
    1   0.0006497   0.0002678   0.0000126  -0.0003949   0.0002783  -0.0005492
    2  -0.0006222  -0.0008413  -0.0003879   0.0001436  -0.0004398   0.0003545
    3  -0.0003675  -0.0002515  -0.0002447   0.0001504  -0.0001905   0.0001393
           61          62          63          64          65          66
    1   0.0002047  -0.0000203   0.0001327  -0.0003176  -0.0097703   0.0045194
    2   0.0004042  -0.0004313   0.0007396   0.0002031   0.0394574   0.0093828
    3   0.0002386  -0.0000039  -0.0000502   0.0003157  -0.0656061   0.0216376
           67          68          69          70          71          72
    1   0.0274612   0.0045393   0.0133922  -0.0030687  -0.0030933  -0.0475600
    2  -0.0045632   0.0058589   0.0039703   0.0063030   0.0070842  -0.0083688
    3   0.0125226  -0.0055444  -0.0064091  -0.0060402   0.0117750   0.0119046
           73          74          75          76          77          78
    1  -0.0137427  -0.0010420  -0.0092686  -0.0037264  -0.0030229   0.0063864
    2  -0.0123395   0.0082736   0.0065828  -0.0144977   0.0050322   0.0087153
    3   0.0031809  -0.0122148   0.0164960   0.0048320  -0.0010136   0.0046037
           79          80          81          82          83          84
    1   0.0020621  -0.0070328  -0.0018046   0.0155436   0.0008613  -0.0010816
    2   0.0022636  -0.0040105   0.0013173   0.0239839  -0.0002161   0.0011560
    3  -0.0036953   0.0004495  -0.0028427   0.0017417  -0.0011382   0.0015080
           85          86          87          88
    1  -0.0334145   0.0020372  -0.0000679  -0.0012091
    2  -0.0645857  -0.0101386   0.0060502  -0.0101315
    3  -0.0485407   0.0083949  -0.0025659  -0.0069023
 Max gradient component =       6.561E-02
 RMS gradient           =       1.026E-02
 Gradient time:  CPU 195.31 s  wall 33.11 s
 After opt distance between the previous and current R_nodes (Angstroms): 1.6085
 After opt distance between the previous and current P_nodes (Angstroms): 1.5097
-Printing perpgrad.txt, Vfile.txt, and stringfile.txt

STARTING FREEZING STRING ITERATION # 4
 The distance between the innermost nodes (Angstroms): 11.750
-Adding two new nodes
 The distance between the previous and current R_nodes (Angstroms): 1.6036
 The distance between the previous and current P_nodes (Angstroms): 1.5462
-Optimizing new reactant side node
 Using BFGS, step: 5 E_tol 0.0131
 max_steps 3, node_spacing 1.5431, sigma 0.7000
 ----------------------------------------------------------------
             Standard Nuclear Orientation (Angstroms)
    I     Atom           X                Y                Z
 ----------------------------------------------------------------
    1      N       9.1101423528    -0.5265411749    -0.2941003922
    2      C       7.7998584821    -0.0586159579    -0.7017942104
    3      H       9.8960408605     0.0103294793    -0.6327098824
    4      H       9.2159736689    -1.5293331598    -0.3791710326
    5      C       6.7495467469    -1.0795670693    -0.2887429687
    6      H       7.6788616824     0.0892030882    -1.7956963679
    7      H       7.5876678812     0.9060628004    -0.2253463486
    8      N       5.5243385736    -0.6040138674     0.0368503308
    9      C       4.3834640420    -1.4593528257     0.3385327172
   10      H       5.3300264671     0.3895044202     0.0590796922
   11      C       3.1310283539    -0.5853746913     0.2604763056
   12      N       1.9346928054    -1.1998097962     0.4177983436
   13      C       0.6527133350    -0.4835195965     0.3683607369
   14      H       1.8670801849    -2.2134301659     0.5204009203
   15      C      -0.4262572802    -1.5592113754     0.2041930866
   16      N      -1.6617488933    -1.1027944200    -0.0840939217
   17      C      -2.7936127520    -2.0047153438    -0.3362479194
   18      H      -1.8423645874    -0.1091459348    -0.1606761307
   19      C      -4.0172878021    -1.2421230978     0.1168210031
   20      N      -4.9851941417    -1.8488301210     0.8139594029
   21      C      -6.2212542477    -1.1941064931     1.2118449965
   22      H      -4.9051056005    -2.8234347794     1.0830608592
   23      C      -7.0479588358    -2.1704485807     2.0269450801
   24      H      -6.8036043756    -0.8679995923     0.3387127000
   25      H      -5.9893387717    -0.3156567370     1.8230305723
   26      O      -8.2074060021    -1.6767298169     2.5588176923
   27      H      -8.3721855422    -0.7257697374     2.3866400033
   28      O       7.0130681804    -2.3124095258    -0.3003930642
   29      O       3.2172224769     0.6545643334     0.0656130539
   30      O      -0.1484655858    -2.7778710374     0.3412302036
   31      O      -4.1022378898    -0.0518449108    -0.2739336402
   32      O      -6.7029614603    -3.3355975913     2.1981027651
   33      C       4.5157612133    -2.1816709634     1.7384315691
   34      H       4.3159024756    -2.2295652380    -0.4397917529
   35      C       4.4814379787    -3.6676542007     1.6261602857
   36      H       3.7130704805    -1.8556697964     2.4077006142
   37      H       5.4575008198    -1.8440617088     2.1873760642
   38      C       3.6229494989    -4.6320474631     2.1210443979
   39      N       4.0345155056    -5.9005646253     1.7145623040
   40      H       2.7517916562    -4.4978689992     2.7423295392
   41      C       5.1280059009    -5.7013253686     0.9774212237
   42      N       5.4408638348    -4.3657070555     0.8981242478
   43      H       5.7084657997    -6.4694138075     0.4949811147
   44      H       6.1969186927    -3.9061879199     0.3923833024
   45      C       0.4470922473     0.3671927875     1.6781425974
   46      H       0.6479865896     0.2001807949    -0.4866018195
   47      O      -0.8639075122     1.1728890150     1.6666159356
   48      H       1.3242895002     1.0166931276     1.7439022841
   49      H       0.4222116181    -0.3223432672     2.5282674861
   50      H      -0.5421471935     4.3689967414     2.8909778073
   51      C      -2.8153782068    -2.3948564091    -1.8435561049
   52      H      -2.6798670054    -2.8978281946     0.2812143811
   53      C      -3.8046205656    -3.4924555314    -2.3150859737
   54      H      -1.7962453906    -2.7463740244    -2.0447058536
   55      H      -2.9626845343    -1.4826123797    -2.4366885290
   56      C      -5.2567126432    -3.0101379750    -2.5035342931
   57      H      -5.7436310902    -2.8012873105    -1.5450107249
   58      H      -5.8560942133    -3.7803117414    -3.0030933185
   59      H      -5.2967489081    -2.1027154216    -3.1166045441
   60      C      -3.7421074771    -4.7625352311    -1.4447593970
   61      H      -3.4404551103    -3.7706093964    -3.3157539336
   62      H      -4.1853053432    -4.6092654655    -0.4519991195
   63      H      -2.7074017332    -5.0927239032    -1.2998443281
   64      H      -4.3019435272    -5.5794321400    -1.9126838536
   65      C      -2.7824745489     3.3877379970    -1.0454780793
   66      C      -2.9234182970     3.2062544043     0.4450060798
   67      C      -4.3631635350     3.1859100978     0.8598510498
   68      H      -2.5431396209     4.0993845147     0.9356197276
   69      H      -2.5624936952     2.2426997920     0.7689405608
   70      O      -5.0656333571     2.1570431894     0.3691362728
   71      H      -4.5608548714     1.3804223429    -0.0167772141
   72      O      -3.5798328132     3.9413705916    -1.6988005365
   73      O      -4.7950947405     4.2413190594     1.3180700868
   74      C       4.2430666823     3.8747548932     0.1590780441
   75      C       3.1640234677     4.7139482452    -0.4477000936
   76      H       4.0772717565     3.2622590252     1.0405998177
   77      H       5.0530094777     4.5329725712     0.4496518767
   78      H       4.6218862874     3.2155270766    -0.6230519229
   79      N       2.1693381463     3.9886054308    -1.0319018132
   80      C       1.1437074950     4.6565714268    -1.8001140795
   81      H       2.0979697430     2.9962525827    -0.8518671172
   82      C      -0.1197866382     4.6475494401    -0.9819921271
   83      H       0.9841505908     4.1802098492    -2.7745399328
   84      H       1.4469812017     5.6921101537    -1.9568817113
   85      S      -1.3477665287     5.6590688075    -1.9669067516
   86      H       0.0093980387     5.0620696184     0.0211138951
   87      H      -0.3799032661     3.5941893336    -0.8973376130
   88      O       3.3201621929     5.9308455042    -0.7078660269
 ----------------------------------------------------------------
 Nuclear Repulsion Energy =  6098.8404467154 hartrees
 There are      179 alpha and      179 beta electrons
 Applying Cartesian multipole field
    Component          Value
    ---------          -----
     (2,0,0)        1.00000E-12
     (0,2,0)        2.00000E-12
     (0,0,2)       -3.00000E-11
 Nucleus-field energy     =    -0.0000000158 hartrees
 Requested basis set is 6-31G
 There are 223 shells and 502 basis functions
 A cutoff of  1.0D-11 yielded   9311 shell pairs
 There are     51902 function pairs
 Smallest overlap matrix eigenvalue = 1.79E-03
 Guess from superposition of atomic densities
 Warning:  Energy on first SCF cycle will be non-variational
 SAD guess density has 358.000001 electrons

 -----------------------------------------------------------------------
  General SCF calculation program by
  Eric Jon Sundstrom, Paul Horn, Yuezhi Mao, Dmitri Zuev, Alec White,
  David Stuck, Shaama M.S., Shane Yost, Joonho Lee, David Small,
  Daniel Levine, Susi Lehtola, Hugh Burton, Evgeny Epifanovsky
 -----------------------------------------------------------------------
 Exchange:     0.2000 Hartree-Fock + 0.0800 Slater + 0.7200 B88
 Correlation:  0.1900 VWN1RPA + 0.8100 LYP
 Using SG-1 standard quadrature grid
 using 8 threads for integral computing
 -------------------------------------------------------
 OpenMP Integral computing Module                
 Release: version 1.0, May 2013, Q-Chem Inc. Pittsburgh 
 -------------------------------------------------------
 -------------------------------------------------------
 OpenMP BLAS3 based DFT computing Module                
 Release: version 1.0, May 2013, Q-Chem Inc. Pittsburgh 
 -------------------------------------------------------
 A restricted SCF calculation will be
 performed using DIIS
 SCF converges when DIIS error is below 1.0e-08
 ---------------------------------------
  Cycle       Energy         DIIS error
 ---------------------------------------
    1   -2688.2046129229      4.35e-02  
    2   -2677.1517773172      6.62e-03  
    3   -2668.4233692876      1.50e-02  
    4   -2676.9450584790      6.33e-03  
    5   -2678.2193139649      2.34e-03  
    6   -2676.7042969999      4.02e-03  
    7   -2674.8780211459      6.54e-03  
    8   -2678.2244361795      2.92e-03  
    9   -2678.5387223255      1.19e-03  
   10   -2678.1254587091      2.92e-03  
   11   -2678.3641431807      1.88e-03  
   12   -2678.5711173874      1.30e-03  
   13   -2678.1806297479      2.51e-03  
   14   -2678.1853567811      2.49e-03  
   15   -2678.1663858729      2.53e-03  
   16   -2678.1667235320      2.53e-03  
   17   -2678.1540372378      2.53e-03  
   18   -2678.4530712543      1.56e-03  
   19   -2678.4992794273      1.48e-03  
   20   -2678.4300024008      1.99e-03  
   21   -2678.4917600256      1.48e-03  
   22   -2678.4496705900      2.08e-03  
   23   -2678.5630354088      1.24e-03  
   24   -2678.6653982141      3.50e-04  
   25   -2678.6616974865      4.01e-04  
   26   -2678.6708908598      2.97e-04  
   27   -2678.6732549857      1.93e-04  
   28   -2678.6743548122      1.02e-04  
   29   -2678.6744105172      1.08e-04  
   30   -2678.6748984816      3.06e-05  
   31   -2678.6749550965      1.10e-05  
   32   -2678.6749686745      1.20e-05  
   33   -2678.6750018976      1.01e-05  
   34   -2678.6750536601      1.09e-05  
   35   -2678.6750834903      9.47e-06  
   36   -2678.6751065045      5.53e-06  
   37   -2678.6751384150      8.66e-06  
   38   -2678.6751754221      6.20e-06  
   39   -2678.6751881710      1.85e-05  
   40   -2678.6752050169      1.08e-05  
   41   -2678.6752152876      8.07e-06  
   42   -2678.6752231605      3.29e-06  
   43   -2678.6752250117      3.62e-06  
   44   -2678.6752265923      5.39e-07  
   45   -2678.6752260278      2.78e-06  
   46   -2678.6752265015      2.01e-06  
   47   -2678.6752266707      1.61e-06  
   48   -2678.6752268395      7.21e-07  
   49   -2678.6752268690      4.51e-07  
   50   -2678.6752268871      1.80e-07  
gen_scfman_exception: SCF failed to converge

 Q-Chem fatal error occurred in module libgscf/gen_scfman/gen_scfman_main.C, line 142:

 Error in gen_scfman


 Please submit a crash report at q-chem.com/reporter 
 
 
