
Running Job 1 of 1 GHSQG_opt_b97-m.in
qchem GHSQG_opt_b97-m.in_11331.0 /scr/c295_krishna/137267/qchem11331/ 1
/usr/software/qchem_511/exe/qcprog.exe_s GHSQG_opt_b97-m.in_11331.0 /scr/c295_krishna/137267/qchem11331/
Check license passed

                  Welcome to Q-Chem
     A Quantum Leap Into The Future Of Chemistry


 Q-Chem 5.1, Q-Chem, Inc., Pleasanton, CA (2018)

 Yihan Shao,  Zhengting Gan,  E. Epifanovsky,  A. T. B. Gilbert,  M. Wormit,  
 J. Kussmann,  A. W. Lange,  A. Behn,  Jia Deng,  Xintian Feng,  D. Ghosh,  
 M. Goldey,  P. R. Horn,  L. D. Jacobson,  I. Kaliman,  T. Kus,  A. Landau,  
 Jie Liu,  E. I. Proynov,  R. M. Richard,  R. P. Steele,  E. J. Sundstrom,  
 H. L. Woodcock III,  P. M. Zimmerman,  D. Zuev,  B. Albrecht,  E. Alguire,  
 S. A. Baeppler,  D. Barton,  Z. Benda,  Y. A. Bernard,  E. J. Berquist,  
 K. B. Bravaya,  H. Burton,  D. Casanova,  Chun-Min Chang,  Yunqing Chen,  
 A. Chien,  K. D. Closser,  M. P. Coons,  S. Coriani,  S. Dasgupta,  
 A. L. Dempwolff,  M. Diedenhofen,  Hainam Do,  R. G. Edgar,  Po-Tung Fang,  
 S. Faraji,  S. Fatehi,  Qingguo Feng,  K. D. Fenk,  J. Fosso-Tande,  
 Qinghui Ge,  A. Ghysels,  G. Gidofalvi,  J. Gomes,  J. Gonthier,  A. Gunina,  
 D. Hait,  M. W. D. Hanson-Heine,  P. H. P. Harbach,  A. W. Hauser,  
 J. E. Herr,  E. G. Hohenstein,  Z. C. Holden,  Kerwin Hui,  B. C. Huynh,  
 T.-C. Jagau,  Hyunjun Ji,  B. Kaduk,  K. Khistyaev,  Jaehoon Kim,  
 P. Klunzinger,  K. Koh,  D. Kosenkov,  L. Koulias,  T. Kowalczyk,  
 C. M. Krauter,  A. Kunitsa,  Ka Un Lao,  A. Laurent,  K. V. Lawler,  
 Joonho Lee,  D. Lefrancois,  S. Lehtola,  D. S. Levine,  Yi-Pei Li,  
 You-Sheng Lin,  Fenglai Liu,  E. Livshits,  A. Luenser,  P. Manohar,  
 E. Mansoor,  S. F. Manzer,  Shan-Ping Mao,  Yuezhi Mao,  N. Mardirossian,  
 A. V. Marenich,  T. Markovich,  L. A. Martinez-Martinez,  S. A. Maurer,  
 N. J. Mayhall,  S. C. McKenzie,  J.-M. Mewes,  A. F. Morrison,  
 J. W. Mullinax,  K. Nanda,  T. S. Nguyen-Beck,  R. Olivares-Amaya,  
 J. A. Parkhill,  T. M. Perrine,  F. Plasser,  P. Pokhilko,  S. Prager,  
 A. Prociuk,  E. Ramos,  D. R. Rehn,  F. Rob,  M. Schneider,  N. Sergueev,  
 S. M. Sharada,  S. Sharma,  D. W. Small,  T. Stauch,  T. Stein,  
 Yu-Chuan Su,  A. J. W. Thom,  A. Tkatchenko,  T. Tsuchimochi,  N. M. Tubman,  
 L. Vogt,  M. L. Vidal,  O. Vydrov,  M. A. Watson,  J. Wenzel,  
 M. de Wergifosse,  T. A. Wesolowski,  A. White,  J. Witte,  A. Yamada,  
 Jun Yang,  K. Yao,  S. Yeganeh,  S. R. Yost,  Zhi-Qiang You,  A. Zech,  
 Igor Ying Zhang,  Xing Zhang,  Yan Zhao,  Ying Zhu,  B. R. Brooks,  
 G. K. L. Chan,  C. J. Cramer,  M. S. Gordon,  W. J. Hehre,  A. Klamt,  
 M. W. Schmidt,  C. D. Sherrill,  D. G. Truhlar,  A. Aspuru-Guzik,  R. Baer,  
 A. T. Bell,  N. A. Besley,  Jeng-Da Chai,  A. E. DePrince, III,  
 R. A. DiStasio Jr.,  A. Dreuw,  B. D. Dunietz,  T. R. Furlani,  
 Chao-Ping Hsu,  Yousung Jung,  Jing Kong,  D. S. Lambrecht,  WanZhen Liang,  
 C. Ochsenfeld,  V. A. Rassolov,  L. V. Slipchenko,  J. E. Subotnik,  
 T. Van Voorhis,  J. M. Herbert,  A. I. Krylov,  P. M. W. Gill,  M. Head-Gordon

 Contributors to earlier versions of Q-Chem not listed above: 
 R. D. Adamson,  B. Austin,  J. Baker,  G. J. O. Beran,  K. Brandhorst,  
 S. T. Brown,  E. F. C. Byrd,  A. K. Chakraborty,  C.-L. Cheng,  
 Siu Hung Chien,  D. M. Chipman,  D. L. Crittenden,  H. Dachsel,  
 R. J. Doerksen,  A. D. Dutoi,  L. Fusti-Molnar,  W. A. Goddard III,  
 A. Golubeva-Zadorozhnaya,  S. R. Gwaltney,  G. Hawkins,  A. Heyden,  
 S. Hirata,  G. Kedziora,  F. J. Keil,  C. Kelley,  Jihan Kim,  R. A. King,  
 R. Z. Khaliullin,  P. P. Korambath,  W. Kurlancheek,  A. M. Lee,  M. S. Lee,  
 S. V. Levchenko,  Ching Yeh Lin,  D. Liotard,  R. C. Lochan,  I. Lotan,  
 P. E. Maslen,  N. Nair,  D. P. O'Neill,  D. Neuhauser,  E. Neuscamman,  
 C. M. Oana,  R. Olson,  B. Peters,  R. Peverati,  P. A. Pieniazek,  
 Y. M. Rhee,  J. Ritchie,  M. A. Rohrdanz,  E. Rosta,  N. J. Russ,  
 H. F. Schaefer III,  N. E. Schultz,  N. Shenvi,  A. C. Simmonett,  A. Sodt,  
 D. Stuck,  K. S. Thanthiriwatte,  V. Vanovschi,  Tao Wang,  A. Warshel,  
 C. F. Williams,  Q. Wu,  X. Xu,  W. Zhang

 Please cite Q-Chem as follows:
 Y. Shao et al., Mol. Phys. 113, 184-215 (2015)
 DOI: 10.1080/00268976.2014.952696

 Q-Chem 5.1.1 for Intel X86 EM64T Linux

 Parts of Q-Chem use Armadillo 8.300.2 (Tropical Shenanigans).
 http://arma.sourceforge.net/

 Q-Chem begins on Thu Nov  1 12:18:51 2018  

Host: cub-0-12.local
0

     Scratch files written to /scr/c295_krishna/137267/qchem11331//
 Aug318 |scratch|qcdevops|jenkins|workspace|build_RNUM -1
Processing $rem in /usr/software/qchem_511/config/preferences.
 MEM_TOTAL  2000 
Input Ideriv = 2
Curr. Ideriv = -1
Max.  Ideriv = 2
Input Ideriv = 1
Curr. Ideriv = 2
Max.  Ideriv = 1

Checking the input file for inconsistencies... 	...done.

--------------------------------------------------------------
User input:
--------------------------------------------------------------
$comment
GHSLG peptide geom opt with no constraints.
$end

$molecule
0  1
N         -0.12402        0.11967       -0.50489
C          1.29092       -0.18736       -0.31162
C          1.72052        0.03458        1.11842
O          0.91202        0.43828        1.94353
H          1.46877       -1.25309       -0.57153
H          1.90567        0.45083       -0.98418
H         -0.27764        1.14217       -0.34615
H         -0.37474       -0.08751       -1.49848
N          3.01573       -0.20391        1.47242
C          3.52282       -0.02054        2.83644
C          5.05430       -0.13373        2.87746
O          5.66116       -0.50138        1.88044
C          2.85481       -1.06954        3.77206
H          3.18478       -2.08484        3.45983
H          1.75220       -1.03421        3.67414
C          3.13711       -0.86351        5.23022
N          2.79301        0.23099        5.92825
C          3.22596        0.00687        7.18207
H          3.10273        0.70766        7.99736
N          3.83162       -1.19284        7.30805
C          3.77405       -1.74252        6.07884
H          4.17232       -2.71549        5.82335
H          2.29566        1.07876        5.57617
H          3.65230       -0.50189        0.71857
H          3.26115        1.01360        3.15228
N          5.75117        0.17142        4.01253
C          7.20945        0.06162        4.10208
C          7.69651        0.15605        5.55118
O          6.91339        0.46101        6.44040
H          7.49366       -0.95308        3.74481
C          7.86303        1.15444        3.22097
H          7.49451        1.07791        2.17710
H          7.57949        2.15200        3.62784
O          9.25703        1.02894        3.19765
H          9.59841        1.81180        2.69214
H          5.22068        0.47819        4.83538
N          8.99971       -0.11871        5.85800
C          9.53266       -0.07546        7.22368
C         11.06134       -0.17063        7.22275
O         11.65617       -0.52498        6.21304
C          8.88421       -1.21868        8.06065
C          9.29209       -1.27727        9.54344
C          8.56933       -2.35882       10.31356
O          7.75418       -3.08445        9.76144
N          8.82773       -2.52985       11.63032
H          9.27900        0.92178        7.64703
H          9.62683       -0.36542        5.08158
H          9.13103       -2.19308        7.58335
H          7.78245       -1.09994        8.03843
H          9.06660       -0.29929       10.02052
H         10.37541       -1.49512        9.62739
H          8.34395       -3.26392       12.16851
H          9.51215       -1.92962       12.11346
N         11.77382        0.18164        8.32967
C         13.22741        0.10440        8.35562
C         13.82812        0.54353        9.67214
O         13.12590        0.91898       10.59802
H         13.53852       -0.94611        8.16841
H         13.64167        0.75154        7.55241
H         11.26324        0.52731        9.15439
O         15.16744        0.52140        9.83551
H         15.75887        0.23018        9.12731



$end

$rem
JOBTYPE           opt
EXCHANGE        B97M-V
BASIS             6-31G*
$end

--------------------------------------------------------------
 ----------------------------------------------------------------
             Standard Nuclear Orientation (Angstroms)
    I     Atom           X                Y                Z
 ----------------------------------------------------------------
    1      N       9.4713974996     0.7244915855     0.0357107592
    2      C       8.2192588004     1.2682632691     0.5554577664
    3      C       7.0200479629     0.5394245884    -0.0008833788
    4      O       7.1770451244    -0.3762219702    -0.7973730041
    5      H       8.2117896013     1.1655864505     1.6619684737
    6      H       8.1465604683     2.3478899442     0.2972675512
    7      H       9.5195369631     0.8994147926    -0.9945262066
    8      H      10.2653874140     1.2382683014     0.4813772950
    9      N       5.7681387205     0.9224388324     0.3809356385
   10      C       4.5460200610     0.2717782543    -0.1031946948
   11      C       3.2965007221     1.0654472148     0.3075565801
   12      O       3.4046910893     2.0071459045     1.0815028862
   13      C       4.4944090917    -1.1840079881     0.4445697333
   14      H       4.3980461732    -1.1434429544     1.5519407324
   15      H       5.4342341615    -1.7221200687     0.2127301890
   16      C       3.3955238273    -2.0227411195    -0.1362487808
   17      N       3.2725531562    -2.3262881501    -1.4386766503
   18      C       2.1675570182    -3.0885934857    -1.5259359179
   19      H       1.7895761565    -3.4995317029    -2.4528934632
   20      N       1.5835311948    -3.2834337791    -0.3247073061
   21      C       2.3581212523    -2.6136805424     0.5515691777
   22      H       2.1739541823    -2.5606384784     1.6163854922
   23      H       3.8989766479    -2.0339490214    -2.2210849610
   24      H       5.7076649244     1.7275276373     1.0216213680
   25      H       4.5860780806     0.2741452661    -1.2149776711
   26      N       2.0632251342     0.7359246850    -0.1798595163
   27      C       0.8429928290     1.4536992299     0.1976171384
   28      C      -0.4161866273     0.6960654272    -0.2342316736
   29      O      -0.3200768654    -0.2890570854    -0.9534578504
   30      H       0.8102831834     1.5018100115     1.3087646078
   31      C       0.8742114263     2.8773861523    -0.4105918281
   32      H       1.7951945603     3.4100165294    -0.0952771336
   33      H       0.8761746756     2.7867502176    -1.5209275228
   34      O      -0.2270875700     3.6361882554     0.0027965627
   35      H      -0.1791499882     4.4917393475    -0.4978877302
   36      H       1.9976656397    -0.0567876851    -0.8278708175
   37      N      -1.6468197523     1.1049326921     0.1974296304
   38      C      -2.8934679206     0.4157643452    -0.1517171316
   39      C      -4.1151276382     1.2454422426     0.2546113773
   40      O      -3.9894211533     2.1946188423     1.0176071818
   41      C      -2.9032486498    -0.9911610793     0.5179270569
   42      C      -4.1226575164    -1.8750718677     0.2013693199
   43      C      -4.0316073322    -3.2518965593     0.8188487664
   44      O      -3.0635068297    -3.5746313249     1.4929916310
   45      N      -5.0340648320    -4.1396047528     0.6266721737
   46      H      -2.9252834458     0.3297570406    -1.2606115141
   47      H      -1.6851068067     1.9403046687     0.7954773685
   48      H      -2.8330254755    -0.8607995025     1.6207712560
   49      H      -2.0079532342    -1.5536854594     0.1855410550
   50      H      -4.2097010016    -1.9918861603    -0.9002993234
   51      H      -5.0424362253    -1.4051802951     0.6029879003
   52      H      -4.9869999090    -5.0816740225     1.0424133355
   53      H      -5.8588705383    -3.8863928095     0.0630142033
   54      N      -5.3429469175     0.9629458058    -0.2646663617
   55      C      -6.5204783488     1.7370026711     0.1011464399
   56      C      -7.7834635379     1.2690184722    -0.5864375718
   57      O      -7.7725476437     0.3287265185    -1.3655789519
   58      H      -6.6777719101     1.6617236083     1.1988713939
   59      H      -6.3543034286     2.8028847397    -0.1668631553
   60      H      -5.4247234727     0.1945211353    -0.9452388299
   61      O      -8.9513684723     1.8976091608    -0.3377824562
   62      H      -9.0031507754     2.6460382788     0.2732152703
 ----------------------------------------------------------------
 Molecular Point Group                 C1    NOp =  1
 Largest Abelian Subgroup              C1    NOp =  1
 Nuclear Repulsion Energy =  3567.5458813856 hartrees
 There are      128 alpha and      128 beta electrons
 Requested basis set is 6-31G(d)
 There are 192 shells and 566 basis functions

 Total QAlloc Memory Limit   2000 MB
 Mega-Array Size       188 MB
 MEM_STATIC part       192 MB
 A cutoff of  1.0D-11 yielded   7866 shell pairs
 There are     70252 function pairs
 
 -------------------------------------------------------
 OpenMP Integral Computing Module                       
 Release: version 1.0, May 2013, Q-Chem Inc. Pittsburgh 
 -------------------------------------------------------
 Integral Job Info:
 Integral job number is                      11
 Integral operator is                         1
 short-range coefficients                     0
 long-range coefficients              100000000
 Omega coefficients                           0
 if combine SR and LR in K                    0
 Integral screening is                        0
 Integral computing path is                   2
 max size of driver memory is            800000
 size of driver memory is                593474
 size of scratch memory is              2361544
 max col of scratch BK array               1296
 max len of scratch array in speh3          155
 max len of scratch index in speh4           18
 max int batch size is                      520
 min int batch size is                       52
 fixed nKL is                                52
 max L of basis functions is                  2
 order of int derivative is                   0
 number of shells is                        192
 number of basis is                         566
 number of cartesian basis is               566
 number of contracted shell pairs          7866
 number of primitive shell pairs          25298
 maxK2 (contraction) of shell pair           36
 max number of K2 of shell pair               1
 max number of CS2 of shell pair            902
 max number of PS2 of shell pair           4236
 mem total for path MDJ                  663436
 -------------------------------------------------------
 Smallest overlap matrix eigenvalue = 1.19E-03

 Scale SEOQF with 1.000000e-02/1.000000e-01/1.000000e-01

 Standard Electronic Orientation quadrupole field applied
 Nucleus-field energy     =     0.0000000822 hartrees
 Guess from superposition of atomic densities
 Warning:  Energy on first SCF cycle will be non-variational
 SAD guess density has 256.000000 electrons

 -----------------------------------------------------------------------
  General SCF calculation program by
  Eric Jon Sundstrom, Paul Horn, Yuezhi Mao, Dmitri Zuev, Alec White,
  David Stuck, Shaama M.S., Shane Yost, Joonho Lee, David Small,
  Daniel Levine, Susi Lehtola, Hugh Burton, Evgeny Epifanovsky
 -----------------------------------------------------------------------
 Exchange:  B97M-V      Correlation:  B97M-V
 Using SG-2 standard quadrature grid
 Nonlocal Correlation:  VV10 with C = 0.0100 and b = 6.00 and scale = 1.00000
 Grid used for NLC:  SG-1 standard quadrature
 using 8 threads for integral computing
 -------------------------------------------------------
 OpenMP Integral computing Module                
 Release: version 1.0, May 2013, Q-Chem Inc. Pittsburgh 
 -------------------------------------------------------
 -------------------------------------------------------
 OpenMP BLAS3 based DFT computing Module                
 Release: version 1.0, May 2013, Q-Chem Inc. Pittsburgh 
 -------------------------------------------------------
 -------------------------------------------------------
 OpenMP BLAS3 based DFT computing Module                
 Release: version 1.0, May 2013, Q-Chem Inc. Pittsburgh 
 -------------------------------------------------------
 -------------------------------------------------------
 OpenMP BLAS3 based DFT computing Module                
 Release: version 1.0, May 2013, Q-Chem Inc. Pittsburgh 
 -------------------------------------------------------
 Nonlocal correlation = 0.937985424608
 A restricted SCF calculation will be
 performed using DIIS
 SCF converges when DIIS error is below 1.0e-08
 ---------------------------------------
  Cycle       Energy         DIIS error
 ---------------------------------------
 Nonlocal correlation = 9.791312026861e-01
    1   -1748.7164531771      3.39e-02  
 Nonlocal correlation = 9.510340769852e-01
    2   -1741.5953585907      4.73e-03  
 Nonlocal correlation = 9.652694743689e-01
    3   -1739.2970066515      9.42e-03  
 Nonlocal correlation = 9.669583597250e-01
    4   -1742.1843631779      2.15e-03  
 Nonlocal correlation = 9.669632312374e-01
    5   -1742.3466241625      4.75e-04  
 Nonlocal correlation = 9.668555837066e-01
    6   -1742.3522969670      2.27e-04  
 Nonlocal correlation = 9.668415208302e-01
    7   -1742.3539996311      8.36e-05  
 Nonlocal correlation = 9.668408217763e-01
    8   -1742.3542137944      3.25e-05  
 Nonlocal correlation = 9.668435922262e-01
    9   -1742.3542479432      7.64e-06  
 Nonlocal correlation = 9.668444101376e-01
   10   -1742.3542497386      3.09e-06  
 Nonlocal correlation = 9.668440392795e-01
   11   -1742.3542500521      1.26e-06  
 Nonlocal correlation = 9.668440060140e-01
   12   -1742.3542501075      3.54e-07  
 Nonlocal correlation = 9.668440269089e-01
   13   -1742.3542501106      1.79e-07  
 Nonlocal correlation = 9.668440195203e-01
   14   -1742.3542501117      4.39e-08  
 Nonlocal correlation = 9.668440149312e-01
   15   -1742.3542501118      1.43e-08  
   16   -1742.3542501118      6.34e-09  Convergence criterion met
 ---------------------------------------
 SCF time:   CPU 26300.37s  wall 3292.00s 
 SCF   energy in the final basis set =    -1742.3542501118
 Total energy in the final basis set =    -1742.3542501118
 
 --------------------------------------------------------------
 
                    Orbital Energies (a.u.)
 --------------------------------------------------------------
 
 Alpha MOs
 -- Occupied --
-19.236 -19.171 -19.171 -19.138 -19.130 -19.124 -19.115 -19.109
-14.401 -14.390 -14.373 -14.365 -14.364 -14.361 -14.323 -14.303
-10.347 -10.297 -10.290 -10.284 -10.275 -10.274 -10.265 -10.248
-10.247 -10.244 -10.238 -10.218 -10.217 -10.199 -10.199 -10.194
-10.186 -10.173  -1.113  -1.041  -1.034  -1.029  -1.025  -1.020
 -1.016  -1.010  -0.999  -0.924  -0.907  -0.901  -0.900  -0.880
 -0.857  -0.848  -0.781  -0.772  -0.745  -0.740  -0.710  -0.698
 -0.663  -0.636  -0.633  -0.620  -0.608  -0.584  -0.574  -0.558
 -0.557  -0.550  -0.543  -0.537  -0.531  -0.521  -0.498  -0.497
 -0.491  -0.484  -0.480  -0.470  -0.463  -0.457  -0.453  -0.449
 -0.445  -0.436  -0.430  -0.427  -0.423  -0.422  -0.415  -0.411
 -0.409  -0.402  -0.398  -0.395  -0.394  -0.388  -0.373  -0.371
 -0.368  -0.366  -0.365  -0.359  -0.359  -0.355  -0.352  -0.343
 -0.340  -0.339  -0.330  -0.321  -0.318  -0.315  -0.309  -0.307
 -0.269  -0.252  -0.248  -0.247  -0.239  -0.234  -0.230  -0.229
 -0.225  -0.221  -0.219  -0.218  -0.210  -0.207  -0.202  -0.180
 -- Virtual --
 -0.039  -0.012  -0.008   0.003   0.012   0.015   0.018   0.019
  0.040   0.043   0.051   0.058   0.062   0.064   0.068   0.082
  0.085   0.093   0.099   0.103   0.107   0.114   0.116   0.119
  0.126   0.129   0.134   0.137   0.138   0.141   0.143   0.149
  0.155   0.157   0.163   0.169   0.172   0.181   0.183   0.190
  0.198   0.205   0.211   0.213   0.215   0.220   0.225   0.227
  0.231   0.238   0.254   0.264   0.283   0.287   0.290   0.302
  0.321   0.323   0.343   0.345   0.346   0.351   0.362   0.379
  0.396   0.400   0.408   0.432   0.435   0.455   0.487   0.492
  0.511   0.513   0.517   0.519   0.528   0.534   0.535   0.542
  0.550   0.559   0.563   0.569   0.573   0.574   0.583   0.585
  0.589   0.595   0.597   0.604   0.610   0.616   0.623   0.628
  0.633   0.640   0.648   0.655   0.657   0.663   0.665   0.669
  0.678   0.679   0.684   0.685   0.697   0.698   0.701   0.704
  0.710   0.719   0.727   0.728   0.738   0.748   0.756   0.761
  0.764   0.769   0.772   0.776   0.784   0.792   0.804   0.807
  0.814   0.814   0.819   0.821   0.825   0.829   0.834   0.837
  0.842   0.842   0.846   0.850   0.851   0.858   0.863   0.867
  0.873   0.874   0.879   0.882   0.883   0.884   0.889   0.895
  0.897   0.901   0.902   0.905   0.908   0.912   0.915   0.917
  0.924   0.931   0.937   0.939   0.946   0.951   0.954   0.967
  0.970   0.979   0.984   0.985   0.992   0.998   1.008   1.013
  1.034   1.038   1.043   1.047   1.053   1.073   1.075   1.080
  1.091   1.096   1.102   1.124   1.135   1.157   1.159   1.174
  1.177   1.189   1.203   1.210   1.222   1.230   1.233   1.247
  1.258   1.270   1.275   1.285   1.288   1.303   1.311   1.325
  1.332   1.350   1.355   1.362   1.367   1.371   1.380   1.381
  1.386   1.393   1.401   1.406   1.415   1.422   1.432   1.435
  1.447   1.456   1.468   1.480   1.488   1.493   1.509   1.516
  1.537   1.559   1.566   1.573   1.580   1.588   1.600   1.615
  1.618   1.637   1.645   1.654   1.662   1.670   1.674   1.684
  1.705   1.718   1.726   1.735   1.742   1.745   1.753   1.762
  1.773   1.775   1.784   1.791   1.793   1.802   1.808   1.815
  1.817   1.823   1.829   1.834   1.838   1.844   1.847   1.854
  1.861   1.864   1.870   1.875   1.879   1.885   1.893   1.895
  1.904   1.907   1.912   1.919   1.921   1.931   1.935   1.947
  1.950   1.955   1.968   1.980   1.985   1.993   2.000   2.001
  2.012   2.017   2.021   2.038   2.039   2.053   2.061   2.065
  2.074   2.077   2.087   2.094   2.095   2.100   2.114   2.121
  2.124   2.132   2.137   2.141   2.150   2.172   2.196   2.203
  2.233   2.249   2.273   2.276   2.281   2.292   2.292   2.294
  2.302   2.306   2.320   2.328   2.345   2.363   2.363   2.370
  2.386   2.396   2.410   2.425   2.430   2.442   2.446   2.449
  2.462   2.470   2.477   2.483   2.495   2.498   2.511   2.528
  2.537   2.549   2.557   2.572   2.581   2.595   2.622   2.636
  2.646   2.649   2.660   2.662   2.681   2.682   2.693   2.704
  2.707   2.716   2.739   2.742   2.773   2.777   2.795   2.801
  2.826   2.842   2.859   2.883   2.901   2.918   2.927   2.936
  2.945   2.955   2.986   3.011   3.026   3.042   3.062   3.068
  3.078   3.094   3.104   3.124   3.129   3.148   3.178   3.197
  3.214   3.244   3.287   3.313   3.911   3.924   3.948   3.969
  4.094   4.110   4.141   4.154   4.162   4.176   4.177   4.196
  4.226   4.253   4.265   4.281   4.340   4.345   4.371   4.410
  4.426   4.452   4.476   4.506   4.548   4.567   4.591   4.636
  4.648   4.680   4.710   4.781   4.816   4.825
 --------------------------------------------------------------
 
          Ground-State Mulliken Net Atomic Charges

     Atom                 Charge (a.u.)
  ----------------------------------------
      1 N                    -0.712389
      2 C                    -0.254437
      3 C                     0.650302
      4 O                    -0.520365
      5 H                     0.173309
      6 H                     0.141854
      7 H                     0.311186
      8 H                     0.302245
      9 N                    -0.671688
     10 C                    -0.038677
     11 C                     0.648719
     12 O                    -0.531748
     13 C                    -0.367773
     14 H                     0.173626
     15 H                     0.207952
     16 C                     0.234402
     17 N                    -0.598442
     18 C                     0.172762
     19 H                     0.163902
     20 N                    -0.416860
     21 C                    -0.036519
     22 H                     0.152421
     23 H                     0.366746
     24 H                     0.354228
     25 H                     0.160660
     26 N                    -0.672926
     27 C                    -0.055181
     28 C                     0.645453
     29 O                    -0.522118
     30 H                     0.195536
     31 C                    -0.032828
     32 H                     0.169653
     33 H                     0.125554
     34 O                    -0.634548
     35 H                     0.411667
     36 H                     0.371663
     37 N                    -0.670229
     38 C                    -0.032764
     39 C                     0.639922
     40 O                    -0.524489
     41 C                    -0.288475
     42 C                    -0.442771
     43 C                     0.654089
     44 O                    -0.502810
     45 N                    -0.794626
     46 H                     0.170844
     47 H                     0.376056
     48 H                     0.170032
     49 H                     0.229859
     50 H                     0.165060
     51 H                     0.164994
     52 H                     0.362852
     53 H                     0.340890
     54 N                    -0.659766
     55 C                    -0.225746
     56 C                     0.644172
     57 O                    -0.454063
     58 H                     0.200498
     59 H                     0.200772
     60 H                     0.362778
     61 O                    -0.588219
     62 H                     0.433801
  ----------------------------------------
  Sum of atomic charges =     0.000000

 -----------------------------------------------------------------
                    Cartesian Multipole Moments
 -----------------------------------------------------------------
    Charge (ESU x 10^10)
                 0.0000
    Dipole Moment (Debye)
         X      -4.2656      Y       6.3761      Z      -2.1963
       Tot       7.9796
    Quadrupole Moments (Debye-Ang)
        XX    -157.3194     XY      12.9023     YY    -185.8618
        XZ     -13.3674     YZ       1.2399     ZZ    -193.3335
    Octopole Moments (Debye-Ang^2)
       XXX    -250.1597    XXY     295.8330    XYY    -140.7877
       YYY      90.3805    XXZ     174.7235    XYZ     -10.2504
       YYZ     -55.3939    XZZ      48.9880    YZZ      -6.1033
       ZZZ     -21.8250
    Hexadecapole Moments (Debye-Ang^3)
      XXXX  -26101.2414   XXXY     946.4674   XXYY   -4136.9494
      XYYY     240.3510   YYYY   -4428.1475   XXXZ   -1178.8494
      XXYZ     173.6244   XYYZ     -61.2498   YYYZ     -79.8269
      XXZZ   -4772.8106   XYZZ     -70.1508   YYZZ    -941.9572
      XZZZ     -68.8070   YZZZ      57.0924   ZZZZ    -779.9093
 -----------------------------------------------------------------
 Calculating analytic gradient of the SCF energy
 Gradient of SCF Energy
            1           2           3           4           5           6
    1  -0.0112342  -0.0089727   0.0097908  -0.0006468  -0.0014869   0.0090454
    2  -0.0041886  -0.0160677   0.0191506   0.0015208  -0.0042213   0.0033144
    3   0.0075466  -0.0051884   0.0172159   0.0055798   0.0105940  -0.0092969
            7           8           9          10          11          12
    1   0.0012506   0.0198708  -0.0018443  -0.0069062   0.0093028  -0.0086096
    2   0.0038727   0.0088289  -0.0245512   0.0082671  -0.0147077  -0.0058356
    3  -0.0269996   0.0134116  -0.0175578   0.0066618  -0.0103242  -0.0084433
           13          14          15          16          17          18
    1   0.0001127   0.0006877   0.0009783  -0.0217727  -0.0122319   0.0379522
    2   0.0113053   0.0005684  -0.0151037  -0.0285495  -0.0058219   0.0226128
    3   0.0080058   0.0137359  -0.0037843  -0.0587833   0.0309312  -0.0177359
           19          20          21          22          23          24
    1  -0.0026485  -0.0007668  -0.0139766   0.0014170   0.0162718   0.0118901
    2  -0.0025252   0.0079965  -0.0086509   0.0012631   0.0089350   0.0136503
    3  -0.0022536   0.0390370   0.0171351   0.0033910  -0.0239339   0.0105470
           25          26          27          28          29          30
    1  -0.0013582  -0.0080142   0.0009901   0.0135067  -0.0087563  -0.0032054
    2   0.0055532   0.0169044  -0.0127806   0.0183943   0.0045083  -0.0070386
    3  -0.0091293   0.0187993  -0.0154192   0.0102239   0.0091119   0.0105898
           31          32          33          34          35          36
    1  -0.0165861   0.0026950  -0.0032439   0.0126380   0.0026612   0.0101888
    2  -0.0035314   0.0130004   0.0038842  -0.0196851   0.0221313  -0.0086126
    3   0.0079544   0.0042744  -0.0086238   0.0057352  -0.0150169  -0.0094550
           37          38          39          40          41          42
    1  -0.0085990  -0.0011579  -0.0047070  -0.0025155  -0.0011270   0.0080670
    2  -0.0235408   0.0154899  -0.0230779  -0.0015454   0.0111467  -0.0087160
    3  -0.0172453   0.0106094  -0.0090892  -0.0060507  -0.0035458   0.0050524
           43          44          45          46          47          48
    1  -0.0273911  -0.0006897   0.0301338  -0.0023196   0.0083395  -0.0009121
    2   0.0114276  -0.0035943   0.0017370   0.0060402   0.0099150   0.0005179
    3  -0.0165728  -0.0004083   0.0151194  -0.0093006   0.0100175   0.0132818
           49          50          51          52          53          54
    1   0.0066535   0.0051146  -0.0034198  -0.0021812  -0.0144759  -0.0014865
    2  -0.0102897  -0.0030363   0.0033945  -0.0224203   0.0086985   0.0225063
    3  -0.0057821  -0.0081543   0.0093602   0.0086487  -0.0116542   0.0186848
           55          56          57          58          59          60
    1  -0.0044565  -0.0085855   0.0024429  -0.0029252   0.0013209   0.0078209
    2  -0.0076846   0.0235003  -0.0208591  -0.0070094   0.0080223  -0.0140339
    3  -0.0074611   0.0172613  -0.0171229   0.0093793  -0.0084811  -0.0103484
           61          62
    1   0.0051150  -0.0170519
    2   0.0081288   0.0014995
    3   0.0076888  -0.0024225
 Max gradient component =       5.878E-02
 RMS gradient           =       1.307E-02
 Gradient time:  CPU 1934.76 s  wall 394.03 s
 Geometry Optimization Parameters
   NAtoms,    NIC,     NZ,  NCons,   NDum,   NFix, NCnnct, MaxDiis
       62     440       0       0       0       0       0       0


** GEOMETRY OPTIMIZATION IN DELOCALIZED INTERNAL COORDINATES **
   Searching for a Minimum

   Optimization Cycle:   1

                       Coordinates (Angstroms)
     ATOM                X               Y               Z
      1  N         9.4713974996    0.7244915855    0.0357107592
      2  C         8.2192588004    1.2682632691    0.5554577664
      3  C         7.0200479629    0.5394245884   -0.0008833788
      4  O         7.1770451244   -0.3762219702   -0.7973730041
      5  H         8.2117896013    1.1655864505    1.6619684737
      6  H         8.1465604683    2.3478899442    0.2972675512
      7  H         9.5195369631    0.8994147926   -0.9945262066
      8  H        10.2653874140    1.2382683014    0.4813772950
      9  N         5.7681387205    0.9224388324    0.3809356385
     10  C         4.5460200610    0.2717782543   -0.1031946948
     11  C         3.2965007221    1.0654472148    0.3075565801
     12  O         3.4046910893    2.0071459045    1.0815028862
     13  C         4.4944090917   -1.1840079881    0.4445697333
     14  H         4.3980461732   -1.1434429544    1.5519407324
     15  H         5.4342341615   -1.7221200687    0.2127301890
     16  C         3.3955238273   -2.0227411195   -0.1362487808
     17  N         3.2725531562   -2.3262881501   -1.4386766503
     18  C         2.1675570182   -3.0885934857   -1.5259359179
     19  H         1.7895761565   -3.4995317029   -2.4528934632
     20  N         1.5835311948   -3.2834337791   -0.3247073061
     21  C         2.3581212523   -2.6136805424    0.5515691777
     22  H         2.1739541823   -2.5606384784    1.6163854922
     23  H         3.8989766479   -2.0339490214   -2.2210849610
     24  H         5.7076649244    1.7275276373    1.0216213680
     25  H         4.5860780806    0.2741452661   -1.2149776711
     26  N         2.0632251342    0.7359246850   -0.1798595163
     27  C         0.8429928290    1.4536992299    0.1976171384
     28  C        -0.4161866273    0.6960654272   -0.2342316736
     29  O        -0.3200768654   -0.2890570854   -0.9534578504
     30  H         0.8102831834    1.5018100115    1.3087646078
     31  C         0.8742114263    2.8773861523   -0.4105918281
     32  H         1.7951945603    3.4100165294   -0.0952771336
     33  H         0.8761746756    2.7867502176   -1.5209275228
     34  O        -0.2270875700    3.6361882554    0.0027965627
     35  H        -0.1791499882    4.4917393475   -0.4978877302
     36  H         1.9976656397   -0.0567876851   -0.8278708175
     37  N        -1.6468197523    1.1049326921    0.1974296304
     38  C        -2.8934679206    0.4157643452   -0.1517171316
     39  C        -4.1151276382    1.2454422426    0.2546113773
     40  O        -3.9894211533    2.1946188423    1.0176071818
     41  C        -2.9032486498   -0.9911610793    0.5179270569
     42  C        -4.1226575164   -1.8750718677    0.2013693199
     43  C        -4.0316073322   -3.2518965593    0.8188487664
     44  O        -3.0635068297   -3.5746313249    1.4929916310
     45  N        -5.0340648320   -4.1396047528    0.6266721737
     46  H        -2.9252834458    0.3297570406   -1.2606115141
     47  H        -1.6851068067    1.9403046687    0.7954773685
     48  H        -2.8330254755   -0.8607995025    1.6207712560
     49  H        -2.0079532342   -1.5536854594    0.1855410550
     50  H        -4.2097010016   -1.9918861603   -0.9002993234
     51  H        -5.0424362253   -1.4051802951    0.6029879003
     52  H        -4.9869999090   -5.0816740225    1.0424133355
     53  H        -5.8588705383   -3.8863928095    0.0630142033
     54  N        -5.3429469175    0.9629458058   -0.2646663617
     55  C        -6.5204783488    1.7370026711    0.1011464399
     56  C        -7.7834635379    1.2690184722   -0.5864375718
     57  O        -7.7725476437    0.3287265185   -1.3655789519
     58  H        -6.6777719101    1.6617236083    1.1988713939
     59  H        -6.3543034286    2.8028847397   -0.1668631553
     60  H        -5.4247234727    0.1945211353   -0.9452388299
     61  O        -8.9513684723    1.8976091608   -0.3377824562
     62  H        -9.0031507754    2.6460382788    0.2732152703
   Point Group: c1    Number of degrees of freedom:   180


   Energy is  -1742.354250112


 Attempting to Generate Delocalized Internal Coordinates

180 Hessian modes will be used to form the next step
  Hessian Eigenvalues:
     0.002000    0.002000    0.002766    0.004022    0.004390    0.004988
     0.004993    0.006817    0.006832    0.007028    0.007558    0.007615
     0.007632    0.007912    0.008255    0.009251    0.010650    0.011008
     0.011116    0.011201    0.012008    0.012060    0.012181    0.012973
     0.013114    0.013240    0.015668    0.017180    0.020046    0.020086
     0.020443    0.020577    0.021898    0.021898    0.022335    0.022643
     0.022726    0.023043    0.024007    0.024526    0.032510    0.039599
     0.042334    0.044070    0.044229    0.044645    0.045166    0.047586
     0.049539    0.049797    0.049983    0.050210    0.050787    0.051733
     0.053103    0.054547    0.058275    0.064430    0.064610    0.065205
     0.065867    0.066142    0.087701    0.094608    0.097344    0.098398
     0.100834    0.115555    0.125204    0.128370    0.130217    0.131886
     0.133360    0.138966    0.159954    0.159973    0.159990    0.159999
     0.160000    0.160000    0.160000    0.160000    0.160000    0.160000
     0.160000    0.160000    0.160000    0.171744    0.172803    0.172812
     0.184369    0.184929    0.185849    0.219970    0.220000    0.220002
     0.220006    0.220010    0.220291    0.220426    0.220764    0.220777
     0.220887    0.226590    0.234481    0.249858    0.249973    0.249983
     0.249994    0.250000    0.250000    0.250000    0.250000    0.250000
     0.250000    0.250000    0.250000    0.250000    0.269664    0.271237
     0.277811    0.286093    0.288578    0.292691    0.292725    0.311250
     0.311809    0.313928    0.321770    0.323116    0.323179    0.323190
     0.323360    0.323422    0.323582    0.324343    0.324363    0.324429
     0.324639    0.324671    0.326369    0.327740    0.327922    0.328647
     0.357390    0.357626    0.361337    0.361473    0.363274    0.368755
     0.374859    0.404232    0.405109    0.407129    0.426586    0.426768
     0.426894    0.428214    0.430717    0.433995    0.446279    0.456484
     0.490413    0.493841    0.516094    0.516690    0.522005    0.524024
     0.527286    0.538814    0.544446    0.551431    0.556874    0.560496
     0.935049    0.937532    0.937606    0.938426    0.940457    0.948536

 Minimum Search - Taking Simple RFO Step
 Searching for Lamda that Minimizes Along All modes
 Value Taken    Lamda =  -0.08409881
 Calculated Step too Large.  Step scaled by  0.576303
 Step Taken.  Stepsize is  0.300000

                             Maximum     Tolerance    Cnvgd?
         Gradient           0.082278      0.000300      NO
         Displacement       0.135866      0.001200      NO
         Energy change     *********      0.000001      NO


 New Cartesian Coordinates Obtained by Inverse Iteration

 Displacement from previous Coordinates is:  2.015403
 ----------------------------------------------------------------
             Standard Nuclear Orientation (Angstroms)
    I     Atom           X                Y                Z
 ----------------------------------------------------------------
    1      N       9.3561051374     0.7077819467     0.0138830870
    2      C       8.1097959021     1.2538567618     0.5311382169
    3      C       6.9253082438     0.5081498355    -0.0363798812
    4      O       7.0773032914    -0.3964533561    -0.8485320676
    5      H       8.1081191934     1.1501728964     1.6293769643
    6      H       8.0007530502     2.3310701611     0.2917621399
    7      H       9.3993611298     0.8780347741    -1.0000549221
    8      H      10.1343906746     1.2259786025     0.4454095419
    9      N       5.6915601133     0.9018599409     0.3760570661
   10      C       4.4768392087     0.2665452900    -0.0941557258
   11      C       3.2798401617     1.0986443119     0.3512576766
   12      O       3.4340032791     2.0312082470     1.1334348639
   13      C       4.3904919761    -1.1873894242     0.4310606086
   14      H       4.3074389227    -1.1601893119     1.5296823399
   15      H       5.3228397669    -1.7176221101     0.1829728067
   16      C       3.2590794000    -1.9817584709    -0.1414458631
   17      N       3.1021148751    -2.2656934081    -1.4564734284
   18      C       1.9698417058    -3.0009225657    -1.5738319493
   19      H       1.5879938310    -3.3744510444    -2.5119011022
   20      N       1.3925503656    -3.2051947035    -0.3917785459
   21      C       2.1951158426    -2.5696847501     0.5013777645
   22      H       1.9992414239    -2.5462011387     1.5629433967
   23      H       3.7250009916    -1.9804297027    -2.2192819295
   24      H       5.6184761856     1.6940333795     1.0157359125
   25      H       4.5035581363     0.2691754797    -1.1995355059
   26      N       2.0563945157     0.7717166718    -0.1386441573
   27      C       0.8519755009     1.4806985910     0.2375879214
   28      C      -0.3588712974     0.6782265132    -0.2155173660
   29      O      -0.2148670086    -0.3048910200    -0.9344050459
   30      H       0.8159378544     1.5417022111     1.3402252937
   31      C       0.8512978516     2.8946551314    -0.3582621199
   32      H       1.7604299137     3.4293265036    -0.0373072492
   33      H       0.8621566598     2.8062798047    -1.4624854864
   34      O      -0.2914391239     3.5865792867     0.0847222404
   35      H      -0.2996710175     4.4468362398    -0.3809148691
   36      H       1.9662476660    -0.0165452277    -0.7779487311
   37      N      -1.5812647176     1.0865161127     0.2091495388
   38      C      -2.7986141262     0.3791911835    -0.1361037654
   39      C      -3.9897325115     1.2443865350     0.2494878728
   40      O      -3.8555878534     2.2086271724     0.9944584963
   41      C      -2.8200447692    -1.0046731702     0.5561677144
   42      C      -4.0351733845    -1.8781894152     0.2370947615
   43      C      -3.9373313081    -3.2400118720     0.8843191722
   44      O      -2.9808782897    -3.5534165887     1.5790752787
   45      N      -4.9577382050    -4.1046687124     0.6696652480
   46      H      -2.8183788927     0.2583007005    -1.2353376226
   47      H      -1.6506903221     1.9272968462     0.7825394790
   48      H      -2.7586299316    -0.8533144254     1.6468816908
   49      H      -1.9246799819    -1.5631999761     0.2484647538
   50      H      -4.1157535226    -2.0121878485    -0.8570819400
   51      H      -4.9600636382    -1.4058654989     0.6072639759
   52      H      -4.9282605789    -5.0302915519     1.0888335275
   53      H      -5.7600178295    -3.8527970555     0.0947984800
   54      N      -5.2011198537     0.9405719679    -0.2825052854
   55      C      -6.3675925742     1.7214410937     0.0437374084
   56      C      -7.5851502030     1.1920153960    -0.6658705283
   57      O      -7.5417001360     0.2302619258    -1.4041453460
   58      H      -6.5460142592     1.6912716276     1.1327199747
   59      H      -6.2078350954     2.7746382091    -0.2467249797
   60      H      -5.2929156537     0.1631486978    -0.9360801592
   61      O      -8.7551931085     1.8165915178    -0.4622018991
   62      H      -8.7525596534     2.5794650367     0.1324881664
 ----------------------------------------------------------------
 Molecular Point Group                 C1    NOp =  1
 Largest Abelian Subgroup              C1    NOp =  1
 Nuclear Repulsion Energy =  3610.6240171872 hartrees
 There are      128 alpha and      128 beta electrons
 Applying Cartesian multipole field
    Component          Value
    ---------          -----
     (2,0,0)        1.00000E-12
     (0,2,0)        2.00000E-11
     (0,0,2)       -3.00000E-11
 Nucleus-field energy     =     0.0000000789 hartrees
 Requested basis set is 6-31G(d)
 There are 192 shells and 566 basis functions
 A cutoff of  1.0D-11 yielded   7985 shell pairs
 There are     71242 function pairs
 Smallest overlap matrix eigenvalue = 1.15E-03
 Guess MOs from SCF MO coefficient file

 -----------------------------------------------------------------------
  General SCF calculation program by
  Eric Jon Sundstrom, Paul Horn, Yuezhi Mao, Dmitri Zuev, Alec White,
  David Stuck, Shaama M.S., Shane Yost, Joonho Lee, David Small,
  Daniel Levine, Susi Lehtola, Hugh Burton, Evgeny Epifanovsky
 -----------------------------------------------------------------------
 Exchange:  B97M-V      Correlation:  B97M-V
 Using SG-2 standard quadrature grid
 Nonlocal Correlation:  VV10 with C = 0.0100 and b = 6.00 and scale = 1.00000
 Grid used for NLC:  SG-1 standard quadrature
 using 8 threads for integral computing
 -------------------------------------------------------
 OpenMP Integral computing Module                
 Release: version 1.0, May 2013, Q-Chem Inc. Pittsburgh 
 -------------------------------------------------------
 -------------------------------------------------------
 OpenMP BLAS3 based DFT computing Module                
 Release: version 1.0, May 2013, Q-Chem Inc. Pittsburgh 
 -------------------------------------------------------
 -------------------------------------------------------
 OpenMP BLAS3 based DFT computing Module                
 Release: version 1.0, May 2013, Q-Chem Inc. Pittsburgh 
 -------------------------------------------------------
 -------------------------------------------------------
 OpenMP BLAS3 based DFT computing Module                
 Release: version 1.0, May 2013, Q-Chem Inc. Pittsburgh 
 -------------------------------------------------------
 Nonlocal correlation = 0.964820288965
 A restricted SCF calculation will be
 performed using DIIS
 SCF converges when DIIS error is below 1.0e-08
 ---------------------------------------
  Cycle       Energy         DIIS error
 ---------------------------------------
 Nonlocal correlation = 9.654817590103e-01
    1   -1742.3764758690      4.75e-04  
 Nonlocal correlation = 9.649727343535e-01
    2   -1742.3904098715      1.39e-04  
 Nonlocal correlation = 9.652107089987e-01
    3   -1742.3900186707      1.79e-04  
 Nonlocal correlation = 9.652136191578e-01
    4   -1742.3910085030      4.72e-05  
 Nonlocal correlation = 9.652210639450e-01
    5   -1742.3910790608      1.29e-05  
 Nonlocal correlation = 9.652178489913e-01
    6   -1742.3910843953      3.45e-06  
 Nonlocal correlation = 9.652177897290e-01
    7   -1742.3910847622      1.20e-06  
 Nonlocal correlation = 9.652179207871e-01
    8   -1742.3910848010      6.52e-07  
 Nonlocal correlation = 9.652179612356e-01
    9   -1742.3910848153      2.00e-07  
 Nonlocal correlation = 9.652179670962e-01
   10   -1742.3910848166      4.92e-08  
 Nonlocal correlation = 9.652179549247e-01
   11   -1742.3910848167      2.10e-08  
   12   -1742.3910848167      5.71e-09  Convergence criterion met
 ---------------------------------------
 SCF time:   CPU 20018.51s  wall 2506.00s 
 SCF   energy in the final basis set =    -1742.3910848167
 Total energy in the final basis set =    -1742.3910848167
 
 --------------------------------------------------------------
 
                    Orbital Energies (a.u.)
 --------------------------------------------------------------
 
 Alpha MOs
 -- Occupied --
-19.239 -19.174 -19.173 -19.141 -19.131 -19.126 -19.116 -19.112
-14.394 -14.389 -14.369 -14.362 -14.360 -14.360 -14.318 -14.302
-10.346 -10.296 -10.287 -10.281 -10.276 -10.272 -10.263 -10.241
-10.240 -10.238 -10.237 -10.218 -10.213 -10.199 -10.196 -10.193
-10.183 -10.172  -1.121  -1.044  -1.036  -1.034  -1.026  -1.022
 -1.014  -1.011  -0.994  -0.931  -0.913  -0.908  -0.904  -0.884
 -0.860  -0.845  -0.785  -0.774  -0.749  -0.743  -0.711  -0.699
 -0.664  -0.638  -0.634  -0.623  -0.609  -0.582  -0.580  -0.561
 -0.555  -0.554  -0.548  -0.542  -0.536  -0.521  -0.502  -0.499
 -0.493  -0.486  -0.483  -0.475  -0.463  -0.460  -0.455  -0.452
 -0.446  -0.436  -0.432  -0.426  -0.425  -0.423  -0.416  -0.413
 -0.409  -0.403  -0.397  -0.396  -0.394  -0.385  -0.376  -0.374
 -0.369  -0.367  -0.365  -0.361  -0.361  -0.356  -0.353  -0.344
 -0.341  -0.339  -0.331  -0.325  -0.320  -0.314  -0.313  -0.308
 -0.273  -0.255  -0.250  -0.246  -0.240  -0.238  -0.233  -0.231
 -0.226  -0.222  -0.221  -0.220  -0.210  -0.209  -0.203  -0.182
 -- Virtual --
 -0.039  -0.013  -0.008   0.004   0.014   0.014   0.018   0.020
  0.045   0.051   0.053   0.062   0.067   0.068   0.071   0.088
  0.095   0.101   0.105   0.109   0.113   0.118   0.121   0.124
  0.129   0.136   0.139   0.142   0.145   0.147   0.149   0.155
  0.159   0.162   0.170   0.172   0.177   0.183   0.186   0.197
  0.201   0.209   0.215   0.217   0.218   0.222   0.227   0.232
  0.239   0.244   0.260   0.276   0.287   0.288   0.292   0.317
  0.319   0.322   0.339   0.343   0.347   0.353   0.363   0.378
  0.397   0.399   0.414   0.436   0.440   0.459   0.487   0.493
  0.512   0.514   0.515   0.518   0.530   0.534   0.540   0.544
  0.550   0.561   0.567   0.570   0.573   0.574   0.585   0.586
  0.592   0.595   0.599   0.606   0.608   0.623   0.628   0.632
  0.639   0.644   0.650   0.657   0.661   0.663   0.668   0.670
  0.678   0.685   0.686   0.689   0.698   0.703   0.705   0.708
  0.713   0.722   0.730   0.733   0.743   0.752   0.757   0.758
  0.763   0.768   0.774   0.778   0.788   0.795   0.804   0.810
  0.815   0.819   0.820   0.824   0.827   0.831   0.837   0.839
  0.841   0.843   0.848   0.853   0.855   0.860   0.866   0.874
  0.876   0.878   0.883   0.886   0.888   0.889   0.894   0.897
  0.899   0.907   0.910   0.912   0.913   0.915   0.919   0.922
  0.932   0.935   0.936   0.947   0.952   0.954   0.960   0.972
  0.975   0.982   0.992   0.994   1.000   1.006   1.013   1.018
  1.038   1.041   1.046   1.055   1.060   1.073   1.081   1.089
  1.096   1.102   1.110   1.121   1.135   1.157   1.162   1.173
  1.182   1.192   1.205   1.210   1.225   1.237   1.245   1.247
  1.267   1.277   1.281   1.290   1.297   1.314   1.321   1.327
  1.339   1.351   1.357   1.367   1.371   1.376   1.378   1.381
  1.384   1.398   1.402   1.405   1.415   1.421   1.428   1.437
  1.450   1.460   1.471   1.484   1.497   1.502   1.526   1.531
  1.537   1.562   1.570   1.579   1.587   1.599   1.602   1.617
  1.623   1.634   1.646   1.656   1.661   1.676   1.680   1.682
  1.714   1.729   1.739   1.741   1.748   1.759   1.762   1.771
  1.777   1.782   1.786   1.794   1.802   1.804   1.814   1.816
  1.825   1.829   1.837   1.838   1.843   1.849   1.856   1.857
  1.868   1.870   1.879   1.885   1.889   1.894   1.895   1.900
  1.907   1.913   1.919   1.921   1.922   1.934   1.937   1.952
  1.955   1.965   1.977   1.984   1.987   2.001   2.007   2.014
  2.019   2.026   2.037   2.042   2.046   2.065   2.068   2.075
  2.082   2.086   2.093   2.099   2.107   2.110   2.120   2.126
  2.134   2.138   2.144   2.154   2.163   2.179   2.210   2.212
  2.233   2.251   2.273   2.280   2.290   2.300   2.303   2.308
  2.309   2.320   2.326   2.332   2.356   2.366   2.373   2.378
  2.391   2.409   2.416   2.431   2.441   2.451   2.455   2.462
  2.470   2.477   2.480   2.486   2.501   2.508   2.521   2.538
  2.542   2.549   2.560   2.579   2.595   2.613   2.626   2.645
  2.655   2.661   2.670   2.675   2.682   2.693   2.698   2.714
  2.726   2.731   2.749   2.755   2.787   2.793   2.805   2.809
  2.828   2.844   2.855   2.894   2.903   2.934   2.937   2.949
  2.955   2.961   2.994   3.019   3.034   3.050   3.068   3.077
  3.082   3.095   3.109   3.136   3.141   3.141   3.183   3.216
  3.232   3.273   3.310   3.328   3.923   3.934   3.951   3.977
  4.099   4.131   4.154   4.162   4.187   4.189   4.197   4.202
  4.238   4.266   4.279   4.306   4.343   4.350   4.383   4.417
  4.434   4.457   4.484   4.522   4.562   4.589   4.616   4.639
  4.656   4.691   4.723   4.794   4.825   4.843
 --------------------------------------------------------------
 
          Ground-State Mulliken Net Atomic Charges

     Atom                 Charge (a.u.)
  ----------------------------------------
      1 N                    -0.713552
      2 C                    -0.259680
      3 C                     0.652115
      4 O                    -0.524625
      5 H                     0.174510
      6 H                     0.141404
      7 H                     0.313904
      8 H                     0.303639
      9 N                    -0.670856
     10 C                    -0.044488
     11 C                     0.655589
     12 O                    -0.541748
     13 C                    -0.368708
     14 H                     0.176073
     15 H                     0.210461
     16 C                     0.241649
     17 N                    -0.610352
     18 C                     0.189614
     19 H                     0.164332
     20 N                    -0.413013
     21 C                    -0.050767
     22 H                     0.149262
     23 H                     0.359756
     24 H                     0.359340
     25 H                     0.162056
     26 N                    -0.675502
     27 C                    -0.062487
     28 C                     0.651093
     29 O                    -0.529603
     30 H                     0.196707
     31 C                    -0.035498
     32 H                     0.172072
     33 H                     0.128593
     34 O                    -0.637274
     35 H                     0.414001
     36 H                     0.380780
     37 N                    -0.669445
     38 C                    -0.040801
     39 C                     0.646358
     40 O                    -0.529862
     41 C                    -0.290724
     42 C                    -0.444901
     43 C                     0.652732
     44 O                    -0.501905
     45 N                    -0.793871
     46 H                     0.171572
     47 H                     0.385098
     48 H                     0.170694
     49 H                     0.231780
     50 H                     0.167336
     51 H                     0.166179
     52 H                     0.360306
     53 H                     0.345458
     54 N                    -0.660585
     55 C                    -0.237725
     56 C                     0.643957
     57 O                    -0.454417
     58 H                     0.202571
     59 H                     0.201946
     60 H                     0.367727
     61 O                    -0.579759
     62 H                     0.431481
  ----------------------------------------
  Sum of atomic charges =     0.000000

 -----------------------------------------------------------------
                    Cartesian Multipole Moments
 -----------------------------------------------------------------
    Charge (ESU x 10^10)
                 0.0000
    Dipole Moment (Debye)
         X      -4.8579      Y       6.4313      Z      -2.2671
       Tot       8.3726
    Quadrupole Moments (Debye-Ang)
        XX    -160.5863     XY      12.1458     YY    -185.6523
        XZ     -11.1537     YZ       0.4634     ZZ    -194.4695
    Octopole Moments (Debye-Ang^2)
       XXX    -260.1806    XXY     282.3036    XYY    -139.0528
       YYY      89.5680    XXZ     161.0954    XYZ      -8.2366
       YYZ     -54.5726    XZZ      44.2160    YZZ      -5.4438
       ZZZ     -22.7080
    Hexadecapole Moments (Debye-Ang^3)
      XXXX  -25249.0806   XXXY     902.3514   XXYY   -4029.6128
      XYYY     145.7061   YYYY   -4337.3450   XXXZ   -1011.9287
      XXYZ      96.2918   XYYZ     -46.2384   YYYZ     -76.1197
      XXZZ   -4626.0683   XYZZ     -89.9727   YYZZ    -942.0405
      XZZZ     -79.0422   YZZZ      59.4207   ZZZZ    -813.4889
 -----------------------------------------------------------------
 Calculating analytic gradient of the SCF energy
 Gradient of SCF Energy
            1           2           3           4           5           6
    1  -0.0058712  -0.0073719   0.0058135   0.0013007  -0.0000112   0.0055860
    2  -0.0030545  -0.0082534   0.0119595  -0.0016093  -0.0026801   0.0016411
    3   0.0015931  -0.0011678   0.0111511   0.0020153   0.0058194  -0.0060657
            7           8           9          10          11          12
    1   0.0005426   0.0097913  -0.0056572  -0.0039562   0.0065621  -0.0020503
    2   0.0028682   0.0045762  -0.0113006   0.0030456  -0.0079831  -0.0024966
    3  -0.0142606   0.0082318  -0.0099306   0.0051092  -0.0055987  -0.0039366
           13          14          15          16          17          18
    1   0.0024866   0.0008432  -0.0002584  -0.0097595  -0.0080628   0.0198594
    2   0.0096448   0.0005587  -0.0094996  -0.0119815  -0.0041347   0.0105906
    3   0.0077090   0.0071857  -0.0025821  -0.0368060   0.0251583  -0.0153898
           19          20          21          22          23          24
    1  -0.0025844  -0.0023999  -0.0070088   0.0018271   0.0079901   0.0084367
    2  -0.0022199   0.0028813  -0.0046994   0.0011302   0.0052297   0.0076946
    3  -0.0002748   0.0206360   0.0073773   0.0014152  -0.0121579   0.0056559
           25          26          27          28          29          30
    1  -0.0002298  -0.0107145   0.0009186   0.0094684  -0.0024559  -0.0015932
    2   0.0044013   0.0047057  -0.0056279   0.0101664   0.0009603  -0.0051833
    3  -0.0049008   0.0106260  -0.0120687   0.0061470   0.0052113   0.0058956
           31          32          33          34          35          36
    1  -0.0085961   0.0014862  -0.0011745   0.0055443   0.0009747   0.0071693
    2  -0.0021313   0.0069477   0.0011160  -0.0113829   0.0118818  -0.0039983
    3   0.0049122   0.0024618  -0.0050737   0.0037430  -0.0085197  -0.0059491
           37          38          39          40          41          42
    1  -0.0092515  -0.0000500  -0.0034761   0.0010394   0.0015841   0.0028241
    2  -0.0096301   0.0094235  -0.0143629   0.0007618   0.0061095  -0.0060470
    3  -0.0091183   0.0071564  -0.0047767  -0.0026497  -0.0019656   0.0022627
           43          44          45          46          47          48
    1  -0.0191129   0.0037741   0.0167471  -0.0008891   0.0048598  -0.0006637
    2   0.0077810  -0.0021029  -0.0001423   0.0044697   0.0051579   0.0006005
    3  -0.0116526   0.0017402   0.0088494  -0.0052572   0.0063614   0.0070840
           49          50          51          52          53          54
    1   0.0026278   0.0038826  -0.0017965  -0.0014447  -0.0080997  -0.0045215
    2  -0.0062116  -0.0018507   0.0023897  -0.0106555   0.0048402   0.0110496
    3  -0.0033550  -0.0045811   0.0061284   0.0044311  -0.0067371   0.0083186
           55          56          57          58          59          60
    1  -0.0024843  -0.0049394   0.0009475  -0.0015689   0.0012071   0.0054627
    2  -0.0034901   0.0140210  -0.0108725  -0.0045000   0.0036790  -0.0083572
    3  -0.0033458   0.0095968  -0.0087355   0.0049698  -0.0054004  -0.0051902
           61          62
    1   0.0076567  -0.0111625
    2   0.0033409   0.0008428
    3   0.0041340  -0.0016382
 Max gradient component =       3.681E-02
 RMS gradient           =       7.605E-03
 Gradient time:  CPU 1946.94 s  wall 401.47 s
 Geometry Optimization Parameters
   NAtoms,    NIC,     NZ,  NCons,   NDum,   NFix, NCnnct, MaxDiis
       62     440       0       0       0       0       0       0

 Cartesian Hessian Update
 Hessian Updated using BFGS Update


** GEOMETRY OPTIMIZATION IN DELOCALIZED INTERNAL COORDINATES **
   Searching for a Minimum

   Optimization Cycle:   2

                       Coordinates (Angstroms)
     ATOM                X               Y               Z
      1  N         9.3561051374    0.7077819467    0.0138830870
      2  C         8.1097959021    1.2538567618    0.5311382169
      3  C         6.9253082438    0.5081498355   -0.0363798812
      4  O         7.0773032914   -0.3964533561   -0.8485320676
      5  H         8.1081191934    1.1501728964    1.6293769643
      6  H         8.0007530502    2.3310701611    0.2917621399
      7  H         9.3993611298    0.8780347741   -1.0000549221
      8  H        10.1343906746    1.2259786025    0.4454095419
      9  N         5.6915601133    0.9018599409    0.3760570661
     10  C         4.4768392087    0.2665452900   -0.0941557258
     11  C         3.2798401617    1.0986443119    0.3512576766
     12  O         3.4340032791    2.0312082470    1.1334348639
     13  C         4.3904919761   -1.1873894242    0.4310606086
     14  H         4.3074389227   -1.1601893119    1.5296823399
     15  H         5.3228397669   -1.7176221101    0.1829728067
     16  C         3.2590794000   -1.9817584709   -0.1414458631
     17  N         3.1021148751   -2.2656934081   -1.4564734284
     18  C         1.9698417058   -3.0009225657   -1.5738319493
     19  H         1.5879938310   -3.3744510444   -2.5119011022
     20  N         1.3925503656   -3.2051947035   -0.3917785459
     21  C         2.1951158426   -2.5696847501    0.5013777645
     22  H         1.9992414239   -2.5462011387    1.5629433967
     23  H         3.7250009916   -1.9804297027   -2.2192819295
     24  H         5.6184761856    1.6940333795    1.0157359125
     25  H         4.5035581363    0.2691754797   -1.1995355059
     26  N         2.0563945157    0.7717166718   -0.1386441573
     27  C         0.8519755009    1.4806985910    0.2375879214
     28  C        -0.3588712974    0.6782265132   -0.2155173660
     29  O        -0.2148670086   -0.3048910200   -0.9344050459
     30  H         0.8159378544    1.5417022111    1.3402252937
     31  C         0.8512978516    2.8946551314   -0.3582621199
     32  H         1.7604299137    3.4293265036   -0.0373072492
     33  H         0.8621566598    2.8062798047   -1.4624854864
     34  O        -0.2914391239    3.5865792867    0.0847222404
     35  H        -0.2996710175    4.4468362398   -0.3809148691
     36  H         1.9662476660   -0.0165452277   -0.7779487311
     37  N        -1.5812647176    1.0865161127    0.2091495388
     38  C        -2.7986141262    0.3791911835   -0.1361037654
     39  C        -3.9897325115    1.2443865350    0.2494878728
     40  O        -3.8555878534    2.2086271724    0.9944584963
     41  C        -2.8200447692   -1.0046731702    0.5561677144
     42  C        -4.0351733845   -1.8781894152    0.2370947615
     43  C        -3.9373313081   -3.2400118720    0.8843191722
     44  O        -2.9808782897   -3.5534165887    1.5790752787
     45  N        -4.9577382050   -4.1046687124    0.6696652480
     46  H        -2.8183788927    0.2583007005   -1.2353376226
     47  H        -1.6506903221    1.9272968462    0.7825394790
     48  H        -2.7586299316   -0.8533144254    1.6468816908
     49  H        -1.9246799819   -1.5631999761    0.2484647538
     50  H        -4.1157535226   -2.0121878485   -0.8570819400
     51  H        -4.9600636382   -1.4058654989    0.6072639759
     52  H        -4.9282605789   -5.0302915519    1.0888335275
     53  H        -5.7600178295   -3.8527970555    0.0947984800
     54  N        -5.2011198537    0.9405719679   -0.2825052854
     55  C        -6.3675925742    1.7214410937    0.0437374084
     56  C        -7.5851502030    1.1920153960   -0.6658705283
     57  O        -7.5417001360    0.2302619258   -1.4041453460
     58  H        -6.5460142592    1.6912716276    1.1327199747
     59  H        -6.2078350954    2.7746382091   -0.2467249797
     60  H        -5.2929156537    0.1631486978   -0.9360801592
     61  O        -8.7551931085    1.8165915178   -0.4622018991
     62  H        -8.7525596534    2.5794650367    0.1324881664
   Point Group: c1    Number of degrees of freedom:   180


   Energy is  -1742.391084817

 Hessian Updated using BFGS Update

172 Hessian modes will be used to form the next step
  Hessian Eigenvalues:
     0.001999    0.002000    0.002765    0.004022    0.004388    0.004990
     0.004994    0.006820    0.006838    0.007033    0.007557    0.007613
     0.007632    0.007911    0.008254    0.009252    0.010653    0.011022
     0.011116    0.011206    0.012013    0.012062    0.012185    0.012975
     0.013114    0.013241    0.015666    0.017180    0.020027    0.020111
     0.020450    0.020579    0.021898    0.021898    0.022335    0.022642
     0.022726    0.023041    0.024010    0.024526    0.032504    0.039640
     0.042333    0.044130    0.044456    0.044806    0.045310    0.047574
     0.049533    0.049796    0.049975    0.050210    0.050757    0.051815
     0.053090    0.054530    0.058312    0.064419    0.064576    0.065188
     0.065825    0.066110    0.087702    0.094536    0.097427    0.098296
     0.100845    0.116338    0.125164    0.128367    0.129721    0.131791
     0.133357    0.138804    0.152096    0.159961    0.159977    0.159992
     0.159999    0.160000    0.160000    0.160000    0.160774    0.170832
     0.172040    0.173593    0.184751    0.185224    0.186580    0.217669
     0.219983    0.220003    0.220008    0.220095    0.220276    0.220462
     0.220759    0.220784    0.222416    0.228469    0.238367    0.242688
     0.249875    0.249977    0.249984    0.249996    0.250000    0.250000
     0.250000    0.267393    0.270207    0.273958    0.280248    0.285885
     0.290089    0.292664    0.304474    0.311546    0.313462    0.314313
     0.321364    0.322322    0.323146    0.323185    0.323305    0.323418
     0.323483    0.324057    0.324394    0.324553    0.324661    0.326086
     0.327081    0.327851    0.328502    0.331839    0.357391    0.357656
     0.361159    0.362542    0.368494    0.370541    0.381504    0.403262
     0.405005    0.407583    0.424208    0.426788    0.427687    0.427983
     0.430455    0.433915    0.446078    0.456539    0.485695    0.492902
     0.511950    0.516443    0.521892    0.523710    0.526014    0.538851
     0.544355    0.552445    0.558260    0.563259    0.935301    0.936865
     0.938056    0.938276    0.941974    0.947412

 Minimum Search - Taking Simple RFO Step
 Searching for Lamda that Minimizes Along All modes
 Value Taken    Lamda =  -0.03200634
 Calculated Step too Large.  Step scaled by  0.670766
 Step Taken.  Stepsize is  0.300000

                             Maximum     Tolerance    Cnvgd?
         Gradient           0.039990      0.000300      NO
         Displacement       0.087990      0.001200      NO
         Energy change     -0.036835      0.000001      NO


 New Cartesian Coordinates Obtained by Inverse Iteration

 Displacement from previous Coordinates is:  2.192557
 ----------------------------------------------------------------
             Standard Nuclear Orientation (Angstroms)
    I     Atom           X                Y                Z
 ----------------------------------------------------------------
    1      N       9.2616741157     0.6259767143    -0.1022248848
    2      C       8.0318119402     1.1892672633     0.4257512004
    3      C       6.8335466843     0.4380478041    -0.1171189313
    4      O       6.9424959268    -0.4586435835    -0.9438454398
    5      H       8.0521528222     1.0990334414     1.5181560929
    6      H       7.8920262508     2.2626217173     0.1965261737
    7      H       9.2832882535     0.7632053080    -1.1081912764
    8      H      10.0449858740     1.1474205540     0.2854871074
    9      N       5.6302703904     0.8535783848     0.3476545700
   10      C       4.3990647471     0.2490429430    -0.0831452357
   11      C       3.2614707699     1.1405298646     0.4003753179
   12      O       3.4662643808     2.0632025562     1.1856178617
   13      C       4.2877310804    -1.2017052039     0.4410546614
   14      H       4.2340261671    -1.1759863450     1.5338131257
   15      H       5.2154375645    -1.7175540969     0.1706192379
   16      C       3.1326705400    -1.9748170580    -0.0884188895
   17      N       2.9467257578    -2.2506657413    -1.4154026474
   18      C       1.7979788819    -2.9710229796    -1.5207909426
   19      H       1.4109242238    -3.3221737571    -2.4632055226
   20      N       1.2399658219    -3.1790339899    -0.3473678421
   21      C       2.0629386735    -2.5583781769     0.5464643130
   22      H       1.8631308810    -2.5519220415     1.6068461831
   23      H       3.5574482899    -1.9770288011    -2.1739758715
   24      H       5.5603922070     1.6379990484     0.9845187205
   25      H       4.3943839806     0.2368281364    -1.1833177756
   26      N       2.0358020452     0.8561361308    -0.0813945340
   27      C       0.8548596085     1.5725424611     0.3168207577
   28      C      -0.3327337244     0.7504681001    -0.1706794063
   29      O      -0.1627451053    -0.2125887524    -0.9134075954
   30      H       0.8249937636     1.6277865156     1.4136113091
   31      C       0.8612630339     2.9980842977    -0.2328545798
   32      H       1.7798490789     3.4957882408     0.1001061083
   33      H       0.8623980790     2.9548168691    -1.3338662926
   34      O      -0.2760923217     3.6686334097     0.2694140607
   35      H      -0.3011122418     4.5477513800    -0.1315447251
   36      H       1.8922391084     0.0782772361    -0.7151789395
   37      N      -1.5523759037     1.1321761296     0.2508818776
   38      C      -2.7356818396     0.3922634813    -0.1095204663
   39      C      -3.9303829092     1.2653218595     0.2393668201
   40      O      -3.8345805493     2.2370604517     0.9804043989
   41      C      -2.7475522044    -0.9774230636     0.5968770316
   42      C      -3.9189931568    -1.8858633295     0.2467987439
   43      C      -3.7886933260    -3.2404532788     0.9121130212
   44      O      -2.8593683809    -3.5268461579     1.6485938814
   45      N      -4.7873680679    -4.1180643239     0.6411304984
   46      H      -2.7254971176     0.2407605237    -1.1997736900
   47      H      -1.6654656625     1.9709398666     0.8080196885
   48      H      -2.7195479264    -0.8126622252     1.6791202619
   49      H      -1.8259426452    -1.4988914480     0.3272402852
   50      H      -3.9669922194    -2.0311649725    -0.8427163141
   51      H      -4.8738007349    -1.4500148343     0.5661991223
   52      H      -4.7539634546    -5.0366700651     1.0524376391
   53      H      -5.5598359842    -3.8871068174     0.0359983630
   54      N      -5.1131414594     0.9290231526    -0.3242565054
   55      C      -6.2988892786     1.6846263556    -0.0490661076
   56      C      -7.4589884544     1.0768413152    -0.7918620058
   57      O      -7.3551892065     0.0987314189    -1.4914447796
   58      H      -6.5139134571     1.6869353192     1.0279017113
   59      H      -6.1682104631     2.7331324073    -0.3501600032
   60      H      -5.1927951609     0.1492170223    -0.9634238308
   61      O      -8.6475163847     1.6750205736    -0.6389649315
   62      H      -8.6030476784     2.4478070436    -0.0579342711
 ----------------------------------------------------------------
 Molecular Point Group                 C1    NOp =  1
 Largest Abelian Subgroup              C1    NOp =  1
 Nuclear Repulsion Energy =  3635.5833213329 hartrees
 There are      128 alpha and      128 beta electrons
 Applying Cartesian multipole field
    Component          Value
    ---------          -----
     (2,0,0)        1.00000E-12
     (0,2,0)        2.00000E-11
     (0,0,2)       -3.00000E-11
 Nucleus-field energy     =     0.0000000778 hartrees
 Requested basis set is 6-31G(d)
 There are 192 shells and 566 basis functions
 A cutoff of  1.0D-11 yielded   8101 shell pairs
 There are     72034 function pairs
 Smallest overlap matrix eigenvalue = 1.13E-03
 Guess MOs from SCF MO coefficient file

 -----------------------------------------------------------------------
  General SCF calculation program by
  Eric Jon Sundstrom, Paul Horn, Yuezhi Mao, Dmitri Zuev, Alec White,
  David Stuck, Shaama M.S., Shane Yost, Joonho Lee, David Small,
  Daniel Levine, Susi Lehtola, Hugh Burton, Evgeny Epifanovsky
 -----------------------------------------------------------------------
 Exchange:  B97M-V      Correlation:  B97M-V
 Using SG-2 standard quadrature grid
 Nonlocal Correlation:  VV10 with C = 0.0100 and b = 6.00 and scale = 1.00000
 Grid used for NLC:  SG-1 standard quadrature
 using 8 threads for integral computing
 -------------------------------------------------------
 OpenMP Integral computing Module                
 Release: version 1.0, May 2013, Q-Chem Inc. Pittsburgh 
 -------------------------------------------------------
 -------------------------------------------------------
 OpenMP BLAS3 based DFT computing Module                
 Release: version 1.0, May 2013, Q-Chem Inc. Pittsburgh 
 -------------------------------------------------------
 -------------------------------------------------------
 OpenMP BLAS3 based DFT computing Module                
 Release: version 1.0, May 2013, Q-Chem Inc. Pittsburgh 
 -------------------------------------------------------
 -------------------------------------------------------
 OpenMP BLAS3 based DFT computing Module                
 Release: version 1.0, May 2013, Q-Chem Inc. Pittsburgh 
 -------------------------------------------------------
 Nonlocal correlation = 0.964472038944
 A restricted SCF calculation will be
 performed using DIIS
 SCF converges when DIIS error is below 1.0e-08
 ---------------------------------------
  Cycle       Energy         DIIS error
 ---------------------------------------
 Nonlocal correlation = 9.649923881918e-01
    1   -1742.3856618342      5.66e-04  
 Nonlocal correlation = 9.645283991242e-01
    2   -1742.4054265277      1.30e-04  
 Nonlocal correlation = 9.647625994523e-01
    3   -1742.4046446939      2.02e-04  
 Nonlocal correlation = 9.647710956432e-01
    4   -1742.4059139860      4.75e-05  
 Nonlocal correlation = 9.647762276589e-01
    5   -1742.4059892981      1.35e-05  
 Nonlocal correlation = 9.647722214761e-01
    6   -1742.4059954457      3.28e-06  
 Nonlocal correlation = 9.647724775553e-01
    7   -1742.4059957469      1.46e-06  
 Nonlocal correlation = 9.647727161952e-01
    8   -1742.4059958030      7.02e-07  
 Nonlocal correlation = 9.647727587488e-01
    9   -1742.4059958188      1.72e-07  
 Nonlocal correlation = 9.647727491548e-01
   10   -1742.4059958198      4.10e-08  
 Nonlocal correlation = 9.647727385258e-01
   11   -1742.4059958198      1.88e-08  
   12   -1742.4059958198      5.79e-09  Convergence criterion met
 ---------------------------------------
 SCF time:   CPU 17225.38s  wall 2157.00s 
 SCF   energy in the final basis set =    -1742.4059958198
 Total energy in the final basis set =    -1742.4059958198
 
 --------------------------------------------------------------
 
                    Orbital Energies (a.u.)
 --------------------------------------------------------------
 
 Alpha MOs
 -- Occupied --
-19.241 -19.177 -19.173 -19.144 -19.132 -19.130 -19.117 -19.115
-14.389 -14.389 -14.366 -14.363 -14.358 -14.357 -14.316 -14.301
-10.346 -10.297 -10.285 -10.282 -10.277 -10.271 -10.262 -10.238
-10.237 -10.235 -10.234 -10.217 -10.210 -10.200 -10.195 -10.191
-10.182 -10.172  -1.126  -1.047  -1.041  -1.036  -1.028  -1.024
 -1.015  -1.014  -0.990  -0.936  -0.918  -0.913  -0.907  -0.887
 -0.863  -0.845  -0.788  -0.775  -0.751  -0.745  -0.712  -0.701
 -0.665  -0.641  -0.631  -0.624  -0.611  -0.588  -0.579  -0.564
 -0.557  -0.553  -0.551  -0.546  -0.540  -0.522  -0.505  -0.500
 -0.494  -0.488  -0.485  -0.478  -0.464  -0.462  -0.456  -0.453
 -0.447  -0.436  -0.434  -0.428  -0.425  -0.422  -0.417  -0.415
 -0.409  -0.405  -0.398  -0.396  -0.395  -0.384  -0.380  -0.379
 -0.369  -0.368  -0.365  -0.363  -0.361  -0.357  -0.355  -0.345
 -0.341  -0.339  -0.333  -0.328  -0.321  -0.317  -0.314  -0.309
 -0.277  -0.257  -0.252  -0.244  -0.242  -0.241  -0.234  -0.232
 -0.227  -0.225  -0.224  -0.221  -0.212  -0.212  -0.204  -0.183
 -- Virtual --
 -0.040  -0.015  -0.008   0.004   0.014   0.016   0.017   0.021
  0.048   0.055   0.056   0.065   0.071   0.071   0.074   0.092
  0.100   0.105   0.108   0.114   0.119   0.120   0.123   0.127
  0.133   0.140   0.142   0.147   0.148   0.151   0.153   0.159
  0.163   0.164   0.173   0.174   0.183   0.184   0.185   0.196
  0.205   0.211   0.216   0.219   0.222   0.224   0.229   0.235
  0.244   0.247   0.263   0.282   0.286   0.291   0.292   0.319
  0.322   0.325   0.336   0.343   0.349   0.354   0.365   0.375
  0.396   0.398   0.413   0.436   0.445   0.459   0.486   0.492
  0.509   0.511   0.513   0.522   0.527   0.533   0.539   0.546
  0.552   0.560   0.568   0.569   0.573   0.574   0.584   0.586
  0.595   0.596   0.601   0.607   0.609   0.627   0.630   0.633
  0.640   0.648   0.652   0.658   0.663   0.666   0.669   0.671
  0.678   0.685   0.690   0.693   0.698   0.704   0.708   0.711
  0.716   0.721   0.736   0.737   0.746   0.748   0.754   0.759
  0.763   0.769   0.774   0.779   0.790   0.797   0.803   0.811
  0.816   0.818   0.823   0.826   0.830   0.832   0.837   0.839
  0.843   0.845   0.850   0.856   0.860   0.862   0.867   0.876
  0.878   0.878   0.886   0.890   0.892   0.894   0.899   0.901
  0.901   0.910   0.915   0.915   0.918   0.919   0.924   0.927
  0.933   0.935   0.940   0.951   0.956   0.958   0.966   0.978
  0.978   0.985   0.998   1.003   1.006   1.012   1.017   1.021
  1.039   1.044   1.048   1.056   1.060   1.074   1.082   1.091
  1.098   1.105   1.116   1.119   1.135   1.157   1.163   1.170
  1.183   1.193   1.204   1.207   1.223   1.238   1.242   1.248
  1.268   1.274   1.283   1.288   1.297   1.316   1.317   1.330
  1.338   1.353   1.360   1.369   1.373   1.375   1.376   1.381
  1.383   1.398   1.402   1.409   1.416   1.419   1.427   1.436
  1.452   1.463   1.469   1.488   1.503   1.505   1.533   1.537
  1.541   1.562   1.573   1.581   1.590   1.601   1.604   1.614
  1.626   1.631   1.645   1.655   1.662   1.676   1.679   1.682
  1.716   1.728   1.737   1.747   1.751   1.757   1.760   1.770
  1.779   1.780   1.788   1.795   1.803   1.805   1.812   1.815
  1.825   1.832   1.836   1.843   1.848   1.849   1.858   1.863
  1.870   1.876   1.881   1.887   1.891   1.895   1.899   1.905
  1.907   1.914   1.921   1.924   1.927   1.936   1.940   1.956
  1.958   1.970   1.983   1.986   1.992   2.004   2.008   2.022
  2.026   2.028   2.042   2.046   2.049   2.064   2.072   2.074
  2.084   2.093   2.096   2.104   2.110   2.114   2.127   2.135
  2.137   2.146   2.153   2.160   2.175   2.183   2.219   2.221
  2.235   2.252   2.270   2.283   2.295   2.300   2.308   2.318
  2.324   2.326   2.331   2.337   2.363   2.370   2.377   2.383
  2.393   2.411   2.421   2.432   2.441   2.451   2.453   2.469
  2.476   2.480   2.484   2.490   2.504   2.518   2.527   2.543
  2.548   2.553   2.562   2.578   2.599   2.621   2.635   2.648
  2.659   2.669   2.676   2.677   2.683   2.700   2.704   2.720
  2.739   2.743   2.750   2.765   2.792   2.798   2.804   2.813
  2.830   2.842   2.853   2.899   2.901   2.938   2.944   2.958
  2.961   2.964   3.001   3.021   3.039   3.052   3.076   3.080
  3.088   3.097   3.113   3.136   3.139   3.146   3.187   3.224
  3.250   3.290   3.321   3.338   3.929   3.934   3.953   3.980
  4.099   4.139   4.163   4.167   4.193   4.202   4.205   4.213
  4.241   4.274   4.288   4.312   4.347   4.352   4.390   4.417
  4.437   4.455   4.486   4.528   4.571   4.597   4.629   4.642
  4.663   4.698   4.733   4.800   4.829   4.853
 --------------------------------------------------------------
 
          Ground-State Mulliken Net Atomic Charges

     Atom                 Charge (a.u.)
  ----------------------------------------
      1 N                    -0.717286
      2 C                    -0.260222
      3 C                     0.651765
      4 O                    -0.527761
      5 H                     0.175242
      6 H                     0.141058
      7 H                     0.316510
      8 H                     0.305850
      9 N                    -0.668549
     10 C                    -0.049638
     11 C                     0.658116
     12 O                    -0.548056
     13 C                    -0.372022
     14 H                     0.176195
     15 H                     0.211526
     16 C                     0.250532
     17 N                    -0.617300
     18 C                     0.204750
     19 H                     0.161863
     20 N                    -0.413954
     21 C                    -0.060534
     22 H                     0.149077
     23 H                     0.357094
     24 H                     0.362370
     25 H                     0.162495
     26 N                    -0.676730
     27 C                    -0.065086
     28 C                     0.653012
     29 O                    -0.535700
     30 H                     0.198070
     31 C                    -0.037189
     32 H                     0.175317
     33 H                     0.131116
     34 O                    -0.640940
     35 H                     0.415864
     36 H                     0.386081
     37 N                    -0.667956
     38 C                    -0.048125
     39 C                     0.649305
[...]
  3.230   3.274   3.296   3.306   3.919   3.935   3.985   4.061
  4.088   4.144   4.154   4.179   4.196   4.201   4.223   4.228
  4.253   4.280   4.306   4.339   4.362   4.376   4.403   4.407
  4.440   4.449   4.509   4.557   4.595   4.612   4.652   4.661
  4.670   4.715   4.749   4.806   4.850   4.870
 --------------------------------------------------------------
 
          Ground-State Mulliken Net Atomic Charges

     Atom                 Charge (a.u.)
  ----------------------------------------
      1 N                    -0.739602
      2 C                    -0.236017
      3 C                     0.652133
      4 O                    -0.543370
      5 H                     0.155078
      6 H                     0.153359
      7 H                     0.327625
      8 H                     0.309797
      9 N                    -0.651184
     10 C                    -0.058034
     11 C                     0.648373
     12 O                    -0.540529
     13 C                    -0.380392
     14 H                     0.186697
     15 H                     0.204183
     16 C                     0.264896
     17 N                    -0.620189
     18 C                     0.249986
     19 H                     0.178762
     20 N                    -0.474814
     21 C                    -0.052895
     22 H                     0.160684
     23 H                     0.366777
     24 H                     0.362322
     25 H                     0.172795
     26 N                    -0.648598
     27 C                    -0.085324
     28 C                     0.651507
     29 O                    -0.555065
     30 H                     0.202098
     31 C                    -0.030250
     32 H                     0.167633
     33 H                     0.139535
     34 O                    -0.639720
     35 H                     0.419544
     36 H                     0.372492
     37 N                    -0.662766
     38 C                    -0.043142
     39 C                     0.651463
     40 O                    -0.536921
     41 C                    -0.319963
     42 C                    -0.415743
     43 C                     0.621039
     44 O                    -0.527400
     45 N                    -0.829484
     46 H                     0.176336
     47 H                     0.394260
     48 H                     0.169253
     49 H                     0.202053
     50 H                     0.169004
     51 H                     0.169789
     52 H                     0.341552
     53 H                     0.421235
     54 N                    -0.656100
     55 C                    -0.257893
     56 C                     0.647035
     57 O                    -0.444181
     58 H                     0.206477
     59 H                     0.202818
     60 H                     0.376397
     61 O                    -0.573069
     62 H                     0.427658
  ----------------------------------------
  Sum of atomic charges =     0.000000

 -----------------------------------------------------------------
                    Cartesian Multipole Moments
 -----------------------------------------------------------------
    Charge (ESU x 10^10)
                 0.0000
    Dipole Moment (Debye)
         X       2.8673      Y       6.4529      Z      -1.3401
       Tot       7.1873
    Quadrupole Moments (Debye-Ang)
        XX    -199.1215     XY     -26.7761     YY    -190.9160
        XZ     -15.4869     YZ       1.1899     ZZ    -202.2809
    Octopole Moments (Debye-Ang^2)
       XXX     108.5613    XXY     374.0882    XYY      45.3749
       YYY     134.6100    XXZ      90.1031    XYZ     -11.7758
       YYZ     -30.2079    XZZ      38.6271    YZZ     -25.5478
       ZZZ       5.9762
    Hexadecapole Moments (Debye-Ang^3)
      XXXX  -22236.2593   XXXY    -664.8196   XXYY   -4967.6583
      XYYY    -395.6487   YYYY   -4172.8103   XXXZ   -1774.9731
      XXYZ     145.0651   XYYZ     -26.6444   YYYZ      26.0069
      XXZZ   -4486.5314   XYZZ       3.8616   YYZZ    -906.5357
      XZZZ    -225.0085   YZZZ     -22.8599   ZZZZ    -925.7517
 -----------------------------------------------------------------
 Calculating analytic gradient of the SCF energy
 Gradient of SCF Energy
            1           2           3           4           5           6
    1   0.0000017   0.0003840  -0.0001296   0.0000076  -0.0000052  -0.0000907
    2   0.0001805  -0.0002374   0.0003501  -0.0002502  -0.0000240   0.0000186
    3  -0.0001053   0.0000813  -0.0003647   0.0000996   0.0000248  -0.0000095
            7           8           9          10          11          12
    1   0.0000124  -0.0000911  -0.0001231   0.0001581   0.0003393  -0.0000366
    2  -0.0000078  -0.0000602   0.0001230   0.0001139  -0.0001932   0.0000800
    3   0.0000889   0.0000483   0.0001306  -0.0000047  -0.0000140   0.0000287
           13          14          15          16          17          18
    1  -0.0001807  -0.0000320  -0.0000393   0.0002959   0.0000917  -0.0003837
    2  -0.0000370  -0.0000064   0.0001265  -0.0002511  -0.0004665   0.0006577
    3   0.0000391  -0.0000127  -0.0000548   0.0003774   0.0000977  -0.0001369
           19          20          21          22          23          24
    1   0.0000024   0.0007356  -0.0000608   0.0000555  -0.0000539  -0.0000201
    2  -0.0000554  -0.0004397   0.0006942  -0.0001113  -0.0000887  -0.0000518
    3  -0.0000115  -0.0001415  -0.0000513   0.0000660  -0.0000053   0.0000048
           25          26          27          28          29          30
    1  -0.0000862   0.0000198  -0.0004097  -0.0005215  -0.0000238   0.0000548
    2  -0.0000227   0.0001335  -0.0000692   0.0004927  -0.0002915   0.0000326
    3   0.0000278  -0.0004393   0.0002941   0.0002502  -0.0000960  -0.0000672
           31          32          33          34          35          36
    1   0.0001829  -0.0000045   0.0000047  -0.0001492  -0.0000840   0.0000202
    2  -0.0000124  -0.0000866  -0.0000730   0.0002954   0.0000048  -0.0001620
    3  -0.0002837   0.0000230   0.0000836   0.0001884  -0.0000434  -0.0000268
           37          38          39          40          41          42
    1   0.0002818   0.0003832  -0.0004921  -0.0001664   0.0002048  -0.0000544
    2  -0.0001752  -0.0000571  -0.0002245  -0.0000150   0.0004725   0.0001528
    3  -0.0003940  -0.0000302   0.0002239  -0.0000849   0.0000408  -0.0003649
           43          44          45          46          47          48
    1   0.0014811  -0.0003676  -0.0022407   0.0000106   0.0000536   0.0000931
    2  -0.0010522  -0.0005390   0.0011157  -0.0000679  -0.0001037   0.0000451
    3   0.0012132  -0.0000081  -0.0011684  -0.0000243   0.0000326  -0.0000712
           49          50          51          52          53          54
    1  -0.0001610   0.0001597   0.0001041  -0.0001150   0.0002506   0.0005094
    2   0.0001461   0.0000093  -0.0000518   0.0004331  -0.0005176   0.0006409
    3   0.0000641   0.0000797  -0.0000053  -0.0000485   0.0004028  -0.0002743
           55          56          57          58          59          60
    1   0.0001095   0.0002826   0.0003204  -0.0000307  -0.0002162  -0.0002767
    2  -0.0001606  -0.0003214   0.0000274   0.0000891   0.0000496  -0.0003507
    3   0.0004633  -0.0002536   0.0001891  -0.0001440   0.0000956  -0.0001219
           61          62
    1   0.0002179  -0.0001920
    2  -0.0002298   0.0003885
    3  -0.0002797   0.0003834
 Max gradient component =       2.241E-03
 RMS gradient           =       3.431E-04
 Gradient time:  CPU 1980.65 s  wall 424.62 s
 Geometry Optimization Parameters
   NAtoms,    NIC,     NZ,  NCons,   NDum,   NFix, NCnnct, MaxDiis
       62     440       0       0       0       0       0       0

 Cartesian Hessian Update
 Hessian Updated using BFGS Update
**WARNING** Hereditary positive definiteness endangered


** GEOMETRY OPTIMIZATION IN DELOCALIZED INTERNAL COORDINATES **
   Searching for a Minimum

   Optimization Cycle:  50

                       Coordinates (Angstroms)
     ATOM                X               Y               Z
      1  N         8.9299801458   -0.2730002286   -0.1942159846
      2  C         7.9225264588    0.7607721831   -0.0680817853
      3  C         6.5832688336    0.1749127249   -0.4569697437
      4  O         6.4856243913   -0.6860565896   -1.3254378502
      5  H         7.8931490518    1.1307706993    0.9621929340
      6  H         8.0725718176    1.6483774835   -0.7108362856
      7  H         8.7540000897   -0.7463530454   -1.0751578639
      8  H         9.8456358479    0.1515635215   -0.2709469108
      9  N         5.5025929823    0.6944134366    0.1672343440
     10  C         4.1817195002    0.2068518731   -0.1188198564
     11  C         3.1830117732    1.2165487612    0.4024742019
     12  O         3.4163616574    1.8719933497    1.4120723355
     13  C         3.9394398167   -1.1552939820    0.5778335278
     14  H         4.0130857516   -0.9998837455    1.6561068744
     15  H         4.7691943954   -1.8044888406    0.2817528463
     16  C         2.6297565781   -1.7719760714    0.2670428177
     17  N         2.2969829551   -2.2117604635   -0.9984085888
     18  C         1.0275869072   -2.6868748363   -0.9538578200
     19  H         0.5269992245   -3.0843218002   -1.8212008637
     20  N         0.5182313271   -2.5867371402    0.2500526611
     21  C         1.5035530902   -2.0053753838    1.0109498098
     22  H         1.3595940873   -1.8100735280    2.0614491686
     23  H         2.9096859960   -2.2253121642   -1.7976613253
     24  H         5.5797236585    1.3133088016    0.9620173329
     25  H         4.0916514642    0.0774576184   -1.2001801424
     26  N         2.0291597783    1.2879081919   -0.2940227036
     27  C         0.8328104411    1.8059077702    0.3243823006
     28  C        -0.3288524227    1.0251243398   -0.2820472902
     29  O        -0.1349381656    0.1922002505   -1.1695245151
     30  H         0.8695561581    1.6285533104    1.4051270819
     31  C         0.7144038617    3.3112201708    0.1390318534
     32  H         1.6715138352    3.7610359297    0.4239653911
     33  H         0.5177722344    3.5441123798   -0.9159559870
     34  O        -0.3381466456    3.7362657678    0.9858656666
     35  H        -0.4718300955    4.6801553311    0.8517449081
     36  H         1.8197006048    0.5671108884   -0.9795696092
     37  N        -1.5404243710    1.2827191908    0.2247096616
     38  C        -2.6794235551    0.4945711873   -0.1796389834
     39  C        -3.9188654246    1.2627320615    0.2279699637
     40  O        -3.9221664287    2.0310695202    1.1825212423
     41  C        -2.6333525041   -0.8856026159    0.4988893442
     42  C        -3.5537676227   -1.9178330031   -0.1340711817
     43  C        -3.5225563512   -3.2904968951    0.5192621068
     44  O        -4.5488952642   -3.9211260865    0.7246169933
     45  N        -2.2968808341   -3.7656385822    0.8329008461
     46  H        -2.6412610575    0.3536931776   -1.2645113676
     47  H        -1.6862536136    2.0291853509    0.8942099721
     48  H        -2.8573837258   -0.7614047660    1.5632279979
     49  H        -1.5980285706   -1.2209352774    0.4261919938
     50  H        -3.2814060486   -2.0371490222   -1.1911242641
     51  H        -4.5995012829   -1.6105420747   -0.1077383959
     52  H        -2.2691968447   -4.6964565763    1.2107637954
     53  H        -1.4113093686   -3.3068728270    0.6424085591
     54  N        -5.0235857144    1.0177293386   -0.5052813438
     55  C        -6.2997978641    1.5282791002   -0.1047046399
     56  C        -7.3558708716    0.9450764254   -1.0117780830
     57  O        -7.1069957247    0.1915571391   -1.9155591868
     58  H        -6.5099493830    1.2762237595    0.9413721429
     59  H        -6.3234982946    2.6228507425   -0.1608598965
     60  H        -5.0356728052    0.3558705546   -1.2695714387
     61  O        -8.6179344073    1.3305007045   -0.7580865831
     62  H        -8.6393055290    1.9131567639    0.0163457233
   Point Group: c1    Number of degrees of freedom:   180


   Energy is  -1742.430314034

 Hessian Updated using BFGS Update

180 Hessian modes will be used to form the next step
  Hessian Eigenvalues:
     0.000031    0.001453    0.002383    0.003887    0.004544    0.004673
     0.005086    0.005889    0.006286    0.006918    0.007465    0.007619
     0.008163    0.008954    0.009975    0.011209    0.011902    0.012569
     0.014768    0.015453    0.015498    0.018344    0.019929    0.020699
     0.021359    0.022330    0.022568    0.022731    0.024041    0.024892
     0.026832    0.029151    0.033246    0.035665    0.035828    0.038214
     0.039610    0.041454    0.043020    0.043625    0.044539    0.045279
     0.047245    0.048869    0.050108    0.050807    0.051808    0.053046
     0.053448    0.054447    0.054851    0.055588    0.057911    0.059887
     0.062819    0.064350    0.066170    0.066865    0.068540    0.070473
     0.088034    0.090073    0.094435    0.097498    0.098236    0.101149
     0.106095    0.116822    0.128360    0.132388    0.133297    0.134320
     0.136456    0.139644    0.149946    0.156683    0.158068    0.159102
     0.159450    0.160149    0.160369    0.160599    0.160886    0.160975
     0.162486    0.165544    0.169300    0.181913    0.187015    0.191648
     0.200663    0.201270    0.214076    0.216308    0.220558    0.224029
     0.228830    0.232325    0.232597    0.234643    0.240760    0.242309
     0.243648    0.245710    0.247690    0.250762    0.251302    0.253060
     0.258355    0.258601    0.261862    0.265613    0.270403    0.279031
     0.282169    0.283343    0.289130    0.293537    0.301110    0.308255
     0.313725    0.320307    0.321889    0.322645    0.323020    0.323251
     0.323525    0.323885    0.324157    0.324424    0.324649    0.324755
     0.326017    0.326666    0.327612    0.328587    0.331669    0.334527
     0.351603    0.355411    0.357570    0.358097    0.364597    0.368105
     0.374872    0.388261    0.395256    0.404093    0.405935    0.412078
     0.414687    0.427805    0.431117    0.432873    0.433698    0.441706
     0.445433    0.458678    0.469262    0.485930    0.491517    0.503991
     0.516862    0.519378    0.525354    0.531871    0.539759    0.552600
     0.558270    0.574562    0.638604    0.860318    0.930659    0.937076
     0.937889    0.938795    0.946941    0.978139    1.254210    3.313127
**WARNING** Magnitude of eigenvalue   1 too small.  Replaced by     0.000100

 Minimum Search - Taking Simple RFO Step
 Searching for Lamda that Minimizes Along All modes
 Value Taken    Lamda =  -0.00013692
 Calculated Step too Large.  Step scaled by  0.516479
 Step Taken.  Stepsize is  0.300000

                             Maximum     Tolerance    Cnvgd?
         Gradient           0.003844      0.000300      NO
         Displacement       0.114306      0.001200      NO
         Energy change     -0.000039      0.000001      NO


 New Cartesian Coordinates Obtained by Inverse Iteration

 Displacement from previous Coordinates is:  0.723999
 ----------------------------------------------------------------
             Standard Nuclear Orientation (Angstroms)
    I     Atom           X                Y                Z
 ----------------------------------------------------------------
    1      N       8.9240329732    -0.2630364399    -0.1829029130
    2      C       7.9161109415     0.7722180116    -0.0738978573
    3      C       6.5781253305     0.1805554205    -0.4583287305
    4      O       6.4830003281    -0.6887227140    -1.3188592506
    5      H       7.8840030863     1.1570675143     0.9509021193
    6      H       8.0674638530     1.6504423440    -0.7290940444
    7      H       8.7501385614    -0.7489381969    -1.0575037351
    8      H       9.8398655134     0.1603647813    -0.2635744358
    9      N       5.4957234853     0.7041498658     0.1594235264
   10      C       4.1764062026     0.2092564932    -0.1219299120
   11      C       3.1750308838     1.2196671667     0.3925531292
   12      O       3.4073468075     1.8828354158     1.3973376732
   13      C       3.9390638078    -1.1486344877     0.5848174413
   14      H       4.0077240091    -0.9846202562     1.6621279843
   15      H       4.7732843370    -1.7954648824     0.2964335698
   16      C       2.6340553800    -1.7745642239     0.2731318237
   17      N       2.3090742273    -2.2224544182    -0.9914940397
   18      C       1.0410621069    -2.7015344894    -0.9502629205
   19      H       0.5465153453    -3.1060611227    -1.8177924067
   20      N       0.5262577575    -2.5991202885     0.2511749862
   21      C       1.5051928311    -2.0082782342     1.0130956598
   22      H       1.3557071295    -1.8090597341     2.0620855275
   23      H       2.9252505917    -2.2365106972    -1.7881153305
   24      H       5.5712713482     1.3269364939     0.9513742669
   25      H       4.0857178023     0.0717241786    -1.2022857455
   26      N       2.0208288135     1.2842765247    -0.3041252310
   27      C       0.8240519000     1.8044529635     0.3122642604
   28      C      -0.3366292853     1.0190776502    -0.2891205150
   29      O      -0.1421843029     0.1842532659    -1.1748798280
   30      H       0.8619070705     1.6327314479     1.3939439233
   31      C       0.7045541322     3.3085394142     0.1184197217
   32      H       1.6617956297     3.7603034273     0.3997209574
   33      H       0.5064356804     3.5349302709    -0.9376352252
   34      O      -0.3471695632     3.7378882296     0.9641033045
   35      H      -0.4848041326     4.6797511838     0.8201078009
   36      H       1.8123342853     0.5582733961    -0.9844715214
   37      N      -1.5480771993     1.2760538371     0.2181742657
   38      C      -2.6838542726     0.4770229822    -0.1734268137
   39      C      -3.9254901397     1.2301179654     0.2544381686
   40      O      -3.9269205495     1.9795038523     1.2240729551
   41      C      -2.6185450011    -0.9027615083     0.5037972715
   42      C      -3.5420106697    -1.9368668021    -0.1193455693
   43      C      -3.5060037759    -3.3142064081     0.5231786807
   44      O      -4.5266563171    -3.9676250334     0.6819425461
   45      N      -2.2858110922    -3.7637757138     0.8890692429
   46      H      -2.6576343321     0.3381285022    -1.2588498261
   47      H      -1.6912691824     2.0118457309     0.8997210930
   48      H      -2.8290404510    -0.7805295956     1.5709656466
   49      H      -1.5826695781    -1.2322399097     0.4164478119
   50      H      -3.2814684907    -2.0540330894    -1.1797784624
   51      H      -4.5874896010    -1.6292946719    -0.0852168616
   52      H      -2.2547341050    -4.7149651338     1.2114232212
   53      H      -1.4001790222    -3.3169458280     0.6721078259
   54      N      -5.0331398232     0.9933523060    -0.4757163869
   55      C      -6.3039121996     1.5145881411    -0.0731636379
   56      C      -7.3465761118     1.0526321535    -1.0619456237
   57      O      -7.0903629046     0.3808018605    -2.0261333196
   58      H      -6.5635010247     1.1841111592     0.9401469358
   59      H      -6.2844294181     2.6094796273    -0.0358766880
   60      H      -5.0434781089     0.3758958778    -1.2760855333
   61      O      -8.6044902955     1.4520460136    -0.8098798907
   62      H      -8.6370072784     1.9451826649     0.0240548230
 ----------------------------------------------------------------
 Molecular Point Group                 C1    NOp =  1
 Largest Abelian Subgroup              C1    NOp =  1
 Nuclear Repulsion Energy =  3710.8994731708 hartrees
 There are      128 alpha and      128 beta electrons


 *******************************************
 **  MAXIMUM OPTIMIZATION CYCLES REACHED  **
 *******************************************

 Q-Chem fatal error occurred in module 0, line  456:

 Maximum optimization cycles reached

