
Running Job 1 of 1 malonylSNAC_opt.in
qchem malonylSNAC_opt.in_32229.0 /scr/c295_krishna/137152/qchem32229/ 1
/usr/software/qchem_511/exe/qcprog.exe_s malonylSNAC_opt.in_32229.0 /scr/c295_krishna/137152/qchem32229/
Check license passed

                  Welcome to Q-Chem
     A Quantum Leap Into The Future Of Chemistry


 Q-Chem 5.1, Q-Chem, Inc., Pleasanton, CA (2018)

 Yihan Shao,  Zhengting Gan,  E. Epifanovsky,  A. T. B. Gilbert,  M. Wormit,  
 J. Kussmann,  A. W. Lange,  A. Behn,  Jia Deng,  Xintian Feng,  D. Ghosh,  
 M. Goldey,  P. R. Horn,  L. D. Jacobson,  I. Kaliman,  T. Kus,  A. Landau,  
 Jie Liu,  E. I. Proynov,  R. M. Richard,  R. P. Steele,  E. J. Sundstrom,  
 H. L. Woodcock III,  P. M. Zimmerman,  D. Zuev,  B. Albrecht,  E. Alguire,  
 S. A. Baeppler,  D. Barton,  Z. Benda,  Y. A. Bernard,  E. J. Berquist,  
 K. B. Bravaya,  H. Burton,  D. Casanova,  Chun-Min Chang,  Yunqing Chen,  
 A. Chien,  K. D. Closser,  M. P. Coons,  S. Coriani,  S. Dasgupta,  
 A. L. Dempwolff,  M. Diedenhofen,  Hainam Do,  R. G. Edgar,  Po-Tung Fang,  
 S. Faraji,  S. Fatehi,  Qingguo Feng,  K. D. Fenk,  J. Fosso-Tande,  
 Qinghui Ge,  A. Ghysels,  G. Gidofalvi,  J. Gomes,  J. Gonthier,  A. Gunina,  
 D. Hait,  M. W. D. Hanson-Heine,  P. H. P. Harbach,  A. W. Hauser,  
 J. E. Herr,  E. G. Hohenstein,  Z. C. Holden,  Kerwin Hui,  B. C. Huynh,  
 T.-C. Jagau,  Hyunjun Ji,  B. Kaduk,  K. Khistyaev,  Jaehoon Kim,  
 P. Klunzinger,  K. Koh,  D. Kosenkov,  L. Koulias,  T. Kowalczyk,  
 C. M. Krauter,  A. Kunitsa,  Ka Un Lao,  A. Laurent,  K. V. Lawler,  
 Joonho Lee,  D. Lefrancois,  S. Lehtola,  D. S. Levine,  Yi-Pei Li,  
 You-Sheng Lin,  Fenglai Liu,  E. Livshits,  A. Luenser,  P. Manohar,  
 E. Mansoor,  S. F. Manzer,  Shan-Ping Mao,  Yuezhi Mao,  N. Mardirossian,  
 A. V. Marenich,  T. Markovich,  L. A. Martinez-Martinez,  S. A. Maurer,  
 N. J. Mayhall,  S. C. McKenzie,  J.-M. Mewes,  A. F. Morrison,  
 J. W. Mullinax,  K. Nanda,  T. S. Nguyen-Beck,  R. Olivares-Amaya,  
 J. A. Parkhill,  T. M. Perrine,  F. Plasser,  P. Pokhilko,  S. Prager,  
 A. Prociuk,  E. Ramos,  D. R. Rehn,  F. Rob,  M. Schneider,  N. Sergueev,  
 S. M. Sharada,  S. Sharma,  D. W. Small,  T. Stauch,  T. Stein,  
 Yu-Chuan Su,  A. J. W. Thom,  A. Tkatchenko,  T. Tsuchimochi,  N. M. Tubman,  
 L. Vogt,  M. L. Vidal,  O. Vydrov,  M. A. Watson,  J. Wenzel,  
 M. de Wergifosse,  T. A. Wesolowski,  A. White,  J. Witte,  A. Yamada,  
 Jun Yang,  K. Yao,  S. Yeganeh,  S. R. Yost,  Zhi-Qiang You,  A. Zech,  
 Igor Ying Zhang,  Xing Zhang,  Yan Zhao,  Ying Zhu,  B. R. Brooks,  
 G. K. L. Chan,  C. J. Cramer,  M. S. Gordon,  W. J. Hehre,  A. Klamt,  
 M. W. Schmidt,  C. D. Sherrill,  D. G. Truhlar,  A. Aspuru-Guzik,  R. Baer,  
 A. T. Bell,  N. A. Besley,  Jeng-Da Chai,  A. E. DePrince, III,  
 R. A. DiStasio Jr.,  A. Dreuw,  B. D. Dunietz,  T. R. Furlani,  
 Chao-Ping Hsu,  Yousung Jung,  Jing Kong,  D. S. Lambrecht,  WanZhen Liang,  
 C. Ochsenfeld,  V. A. Rassolov,  L. V. Slipchenko,  J. E. Subotnik,  
 T. Van Voorhis,  J. M. Herbert,  A. I. Krylov,  P. M. W. Gill,  M. Head-Gordon

 Contributors to earlier versions of Q-Chem not listed above: 
 R. D. Adamson,  B. Austin,  J. Baker,  G. J. O. Beran,  K. Brandhorst,  
 S. T. Brown,  E. F. C. Byrd,  A. K. Chakraborty,  C.-L. Cheng,  
 Siu Hung Chien,  D. M. Chipman,  D. L. Crittenden,  H. Dachsel,  
 R. J. Doerksen,  A. D. Dutoi,  L. Fusti-Molnar,  W. A. Goddard III,  
 A. Golubeva-Zadorozhnaya,  S. R. Gwaltney,  G. Hawkins,  A. Heyden,  
 S. Hirata,  G. Kedziora,  F. J. Keil,  C. Kelley,  Jihan Kim,  R. A. King,  
 R. Z. Khaliullin,  P. P. Korambath,  W. Kurlancheek,  A. M. Lee,  M. S. Lee,  
 S. V. Levchenko,  Ching Yeh Lin,  D. Liotard,  R. C. Lochan,  I. Lotan,  
 P. E. Maslen,  N. Nair,  D. P. O'Neill,  D. Neuhauser,  E. Neuscamman,  
 C. M. Oana,  R. Olson,  B. Peters,  R. Peverati,  P. A. Pieniazek,  
 Y. M. Rhee,  J. Ritchie,  M. A. Rohrdanz,  E. Rosta,  N. J. Russ,  
 H. F. Schaefer III,  N. E. Schultz,  N. Shenvi,  A. C. Simmonett,  A. Sodt,  
 D. Stuck,  K. S. Thanthiriwatte,  V. Vanovschi,  Tao Wang,  A. Warshel,  
 C. F. Williams,  Q. Wu,  X. Xu,  W. Zhang

 Please cite Q-Chem as follows:
 Y. Shao et al., Mol. Phys. 113, 184-215 (2015)
 DOI: 10.1080/00268976.2014.952696

 Q-Chem 5.1.1 for Intel X86 EM64T Linux

 Parts of Q-Chem use Armadillo 8.300.2 (Tropical Shenanigans).
 http://arma.sourceforge.net/

 Q-Chem begins on Wed Oct 31 17:05:06 2018  

Host: cub-0-28.local
0

     Scratch files written to /scr/c295_krishna/137152/qchem32229//
 Aug318 |scratch|qcdevops|jenkins|workspace|build_RNUM -1
Processing $rem in /usr/software/qchem_511/config/preferences.
 MEM_TOTAL  2000 
Input Ideriv = 2
Curr. Ideriv = -1
Max.  Ideriv = 2

Checking the input file for inconsistencies... 	...done.

--------------------------------------------------------------
User input:
--------------------------------------------------------------
$comment
malonyl-SNAC geom opt with no constraints.
$end

$molecule
0  1
C          2.23059        2.37870        1.69792
H          2.59004        2.00037        2.67921
H          2.64994        3.39449        1.53967
C          0.72724        2.47014        1.75197
O          0.01965        1.84755        0.97416
S         -0.04166        3.52267        2.98721
C         -0.16025        2.22930        4.27735
H          0.50981        1.37256        4.04818
H          0.19343        2.66856        5.23404
N         -1.52578        1.76321        4.41263
H         -2.25635        2.15627        3.79935
C         -1.87521        0.82371        5.33149
O         -1.03468        0.33679        6.07491
C         -3.30227        0.37760        5.44284
H         -3.94576        1.24740        5.69152
H         -3.41439       -0.38871        6.23966
H         -3.63372       -0.05879        4.47757
C          2.72820        1.47893        0.59598
O          3.38659        0.48840        0.87069
O          2.47079        1.76416       -0.69843
H          1.96808        2.55023       -0.95414

$end

$rem
JOBTYPE           opt
EXCHANGE        b3lyp
BASIS             6-31G*
$end
--------------------------------------------------------------
 ----------------------------------------------------------------
             Standard Nuclear Orientation (Angstroms)
    I     Atom           X                Y                Z
 ----------------------------------------------------------------
    1      C      -2.2405039455     0.1182857040    -0.7646641629
    2      H      -1.7208912267    -0.4689614989    -1.5523260832
    3      H      -2.7556620155     0.9742866745    -1.2490207574
    4      C      -1.2008589510     0.6462779290     0.1901690133
    5      O      -1.2218371398     0.3647428962     1.3791131891
    6      S       0.0974884603     1.7179844007    -0.4347979511
    7      C       1.2701765548     0.3688521590    -0.8297354043
    8      H       0.7512480002    -0.6132159536    -0.8716650773
    9      H       1.6810924323     0.5601453919    -1.8435646240
   10      N       2.3410609188     0.3180133070     0.1453721988
   11      H       2.3383305608     0.9840702716     0.9332184477
   12      C       3.3565297105    -0.5812265292     0.0491634440
   13      O       3.3913487483    -1.3850780691    -0.8721754731
   14      C       4.4489720338    -0.5918371447     1.0759888349
   15      H       4.9627919678     0.3922434499     1.0828896554
   16      H       5.1956269128    -1.3827400192     0.8486055517
   17      H       4.0165053308    -0.7859743336     2.0796445578
   18      C      -3.2766694897    -0.7445514756    -0.0913540597
   19      O      -3.4038459331    -1.9124243609    -0.4230040758
   20      O      -4.0830604669    -0.2368916243     0.8652693648
   21      H      -4.0230009040     0.6887078667     1.1403501241
 ----------------------------------------------------------------
 Molecular Point Group                 C1    NOp =  1
 Largest Abelian Subgroup              C1    NOp =  1
 Nuclear Repulsion Energy =   780.7870446289 hartrees
 There are       50 alpha and       50 beta electrons
 Requested basis set is 6-31G(d)
 There are 67 shells and 202 basis functions

 Total QAlloc Memory Limit   2000 MB
 Mega-Array Size       188 MB
 MEM_STATIC part       192 MB
 A cutoff of  1.0D-11 yielded   1615 shell pairs
 There are     15269 function pairs
 
 -------------------------------------------------------
 OpenMP Integral Computing Module                       
 Release: version 1.0, May 2013, Q-Chem Inc. Pittsburgh 
 -------------------------------------------------------
 Integral Job Info:
 Integral job number is                      11
 Integral operator is                         1
 short-range coefficients                     0
 long-range coefficients              100000000
 Omega coefficients                           0
 if combine SR and LR in K                    0
 Integral screening is                        0
 Integral computing path is                   2
 max size of driver memory is            800000
 size of driver memory is                593474
 size of scratch memory is             15267112
 max col of scratch BK array               1296
 max len of scratch array in speh3          155
 max len of scratch index in speh4           18
 max int batch size is                      520
 min int batch size is                       52
 fixed nKL is                                52
 max L of basis functions is                  2
 order of int derivative is                   0
 number of shells is                         67
 number of basis is                         202
 number of cartesian basis is               202
 number of contracted shell pairs          1615
 number of primitive shell pairs           6228
 maxK2 (contraction) of shell pair           36
 max number of K2 of shell pair               1
 max number of CS2 of shell pair            178
 max number of PS2 of shell pair           1020
 mem total for path MDJ                  547164
 -------------------------------------------------------
 Smallest overlap matrix eigenvalue = 3.15E-03

 Scale SEOQF with 1.000000e-01/1.000000e-01/1.000000e-01

 Standard Electronic Orientation quadrupole field applied
 Nucleus-field energy     =     0.0000000287 hartrees
 Guess from superposition of atomic densities
 Warning:  Energy on first SCF cycle will be non-variational
 SAD guess density has 100.000000 electrons

 -----------------------------------------------------------------------
  General SCF calculation program by
  Eric Jon Sundstrom, Paul Horn, Yuezhi Mao, Dmitri Zuev, Alec White,
  David Stuck, Shaama M.S., Shane Yost, Joonho Lee, David Small,
  Daniel Levine, Susi Lehtola, Hugh Burton, Evgeny Epifanovsky
 -----------------------------------------------------------------------
 Exchange:     0.2000 Hartree-Fock + 0.0800 Slater + 0.7200 B88
 Correlation:  0.1900 VWN1RPA + 0.8100 LYP
 Using SG-1 standard quadrature grid
 using 8 threads for integral computing
 -------------------------------------------------------
 OpenMP Integral computing Module                
 Release: version 1.0, May 2013, Q-Chem Inc. Pittsburgh 
 -------------------------------------------------------
 -------------------------------------------------------
 OpenMP BLAS3 based DFT computing Module                
 Release: version 1.0, May 2013, Q-Chem Inc. Pittsburgh 
 -------------------------------------------------------
 A restricted SCF calculation will be
 performed using DIIS
 SCF converges when DIIS error is below 1.0e-08
 ---------------------------------------
  Cycle       Energy         DIIS error
 ---------------------------------------
    1    -990.0732514095      5.50e-02  
    2    -987.5438029045      8.89e-03  
    3    -986.4331156291      1.87e-02  
    4    -987.8368765780      3.01e-03  
    5    -987.8742601549      9.77e-04  
    6    -987.8773508553      3.82e-04  
    7    -987.8779651092      1.26e-04  
    8    -987.8780216834      5.06e-05  
    9    -987.8780309834      1.34e-05  
   10    -987.8780317626      3.03e-06  
   11    -987.8780318009      1.50e-06  
   12    -987.8780318098      5.56e-07  
   13    -987.8780318109      1.61e-07  
   14    -987.8780318110      3.25e-08  
   15    -987.8780318111      1.12e-08  
   16    -987.8780318111      3.17e-09  Convergence criterion met
 ---------------------------------------
 SCF time:   CPU 88.36s  wall 11.00s 
 SCF   energy in the final basis set =     -987.8780318111
 Total energy in the final basis set =     -987.8780318111
 
 --------------------------------------------------------------
 
                    Orbital Energies (a.u.)
 --------------------------------------------------------------
 
 Alpha MOs
 -- Occupied --
-88.908 -19.207 -19.192 -19.143 -19.111 -14.375 -10.339 -10.339
-10.291 -10.282 -10.246 -10.201  -7.972  -5.937  -5.934  -5.927
 -1.109  -1.086  -1.038  -1.022  -0.935  -0.829  -0.794  -0.746
 -0.684  -0.650  -0.600  -0.583  -0.529  -0.523  -0.510  -0.494
 -0.479  -0.476  -0.454  -0.447  -0.433  -0.428  -0.411  -0.406
 -0.394  -0.381  -0.371  -0.360  -0.325  -0.303  -0.279  -0.272
 -0.263  -0.247
 -- Virtual --
 -0.078  -0.018   0.012   0.023   0.037   0.049   0.075   0.085
  0.112   0.125   0.129   0.139   0.153   0.166   0.174   0.190
  0.227   0.233   0.254   0.292   0.312   0.330   0.343   0.353
  0.380   0.416   0.431   0.479   0.496   0.515   0.532   0.539
  0.543   0.552   0.580   0.605   0.609   0.614   0.624   0.643
  0.653   0.677   0.700   0.728   0.749   0.773   0.779   0.783
  0.799   0.810   0.818   0.824   0.842   0.859   0.868   0.869
  0.876   0.891   0.893   0.907   0.916   0.921   0.932   0.940
  0.948   0.956   0.981   1.026   1.034   1.046   1.079   1.079
  1.096   1.112   1.141   1.195   1.253   1.308   1.320   1.358
  1.386   1.394   1.410   1.436   1.471   1.505   1.524   1.558
  1.593   1.627   1.650   1.693   1.719   1.733   1.756   1.779
  1.791   1.805   1.819   1.828   1.844   1.885   1.900   1.916
  1.926   1.937   1.945   1.990   2.005   2.030   2.050   2.056
  2.111   2.127   2.145   2.173   2.246   2.252   2.277   2.337
  2.350   2.384   2.423   2.449   2.459   2.522   2.542   2.563
  2.621   2.646   2.651   2.671   2.801   2.849   2.870   2.920
  2.963   2.967   3.073   3.139   3.834   3.871   3.926   3.936
  4.020   4.053   4.155   4.172   4.280   4.290   4.450   4.533
 --------------------------------------------------------------
 
          Ground-State Mulliken Net Atomic Charges

     Atom                 Charge (a.u.)
  ----------------------------------------
      1 C                    -0.451013
      2 H                     0.226658
      3 H                     0.200377
      4 C                     0.237061
      5 O                    -0.366602
      6 S                     0.115819
      7 C                    -0.271112
      8 H                     0.204524
      9 H                     0.209197
     10 N                    -0.581612
     11 H                     0.343965
     12 C                     0.591731
     13 O                    -0.502830
     14 C                    -0.540020
     15 H                     0.163987
     16 H                     0.195134
     17 H                     0.168820
     18 C                     0.625952
     19 O                    -0.431564
     20 O                    -0.556664
     21 H                     0.418194
  ----------------------------------------
  Sum of atomic charges =    -0.000000

 -----------------------------------------------------------------
                    Cartesian Multipole Moments
 -----------------------------------------------------------------
    Charge (ESU x 10^10)
                -0.0000
    Dipole Moment (Debye)
         X       0.5765      Y       5.4773      Z       0.5829
       Tot       5.5383
    Quadrupole Moments (Debye-Ang)
        XX     -78.0944     XY      -8.6083     YY     -84.4978
        XZ       9.3096     YZ      -1.7816     ZZ     -76.8634
    Octopole Moments (Debye-Ang^2)
       XXX      18.6365    XXY      80.6789    XYY      -0.0155
       YYY       7.2190    XXZ      35.3618    XYZ     -13.3352
       YYZ      12.5577    XZZ      -5.9709    YZZ       0.7612
       ZZZ       1.9312
    Hexadecapole Moments (Debye-Ang^3)
      XXXX   -3528.9901   XXXY    -165.0279   XXYY    -747.5781
      XYYY     -25.7591   YYYY    -606.1941   XXXZ      79.5770
      XXYZ     -19.0512   XYYZ      -5.0438   YYYZ       0.9190
      XXZZ    -637.6472   XYZZ       2.8812   YYZZ    -157.6374
      XZZZ     -17.9293   YZZZ       8.8233   ZZZZ    -344.2782
 -----------------------------------------------------------------
 Calculating analytic gradient of the SCF energy
 Gradient of SCF Energy
            1           2           3           4           5           6
    1  -0.0002133   0.0092658  -0.0073026   0.0095639   0.0017028  -0.0084901
    2  -0.0136574  -0.0053411   0.0037774   0.0107551  -0.0043696  -0.0093409
    3   0.0113452  -0.0056342   0.0006780  -0.0431389   0.0188525   0.0138460
            7           8           9          10          11          12
    1  -0.0085018  -0.0032036   0.0035102  -0.0026532   0.0038441  -0.0047744
    2   0.0101981  -0.0096568   0.0016185  -0.0212554   0.0099526   0.0183575
    3   0.0124594   0.0001033  -0.0092417  -0.0273261   0.0136821   0.0171494
           13          14          15          16          17          18
    1   0.0059236  -0.0085234   0.0026365   0.0121229  -0.0063615   0.0034247
    2   0.0052001  -0.0084741   0.0074183  -0.0091084  -0.0037825   0.0320245
    3   0.0117033  -0.0180221  -0.0044478   0.0005646   0.0051349   0.0046182
           19          20          21
    1   0.0011310   0.0103590  -0.0134608
    2  -0.0215143   0.0102352  -0.0030369
    3  -0.0087905  -0.0010626   0.0075273
 Max gradient component =       4.314E-02
 RMS gradient           =       1.205E-02
 Gradient time:  CPU 26.59 s  wall 3.77 s
 Geometry Optimization Parameters
   NAtoms,    NIC,     NZ,  NCons,   NDum,   NFix, NCnnct, MaxDiis
       21     129       0       0       0       0       0       0


** GEOMETRY OPTIMIZATION IN DELOCALIZED INTERNAL COORDINATES **
   Searching for a Minimum

   Optimization Cycle:   1

                       Coordinates (Angstroms)
     ATOM                X               Y               Z
      1  C        -2.2405039455    0.1182857040   -0.7646641629
      2  H        -1.7208912267   -0.4689614989   -1.5523260832
      3  H        -2.7556620155    0.9742866745   -1.2490207574
      4  C        -1.2008589510    0.6462779290    0.1901690133
      5  O        -1.2218371398    0.3647428962    1.3791131891
      6  S         0.0974884603    1.7179844007   -0.4347979511
      7  C         1.2701765548    0.3688521590   -0.8297354043
      8  H         0.7512480002   -0.6132159536   -0.8716650773
      9  H         1.6810924323    0.5601453919   -1.8435646240
     10  N         2.3410609188    0.3180133070    0.1453721988
     11  H         2.3383305608    0.9840702716    0.9332184477
     12  C         3.3565297105   -0.5812265292    0.0491634440
     13  O         3.3913487483   -1.3850780691   -0.8721754731
     14  C         4.4489720338   -0.5918371447    1.0759888349
     15  H         4.9627919678    0.3922434499    1.0828896554
     16  H         5.1956269128   -1.3827400192    0.8486055517
     17  H         4.0165053308   -0.7859743336    2.0796445578
     18  C        -3.2766694897   -0.7445514756   -0.0913540597
     19  O        -3.4038459331   -1.9124243609   -0.4230040758
     20  O        -4.0830604669   -0.2368916243    0.8652693648
     21  H        -4.0230009040    0.6887078667    1.1403501241
   Point Group: c1    Number of degrees of freedom:    57


   Energy is   -987.878031811


 Attempting to Generate Delocalized Internal Coordinates

 57 Hessian modes will be used to form the next step
  Hessian Eigenvalues:
     0.002000    0.002000    0.006736    0.008234    0.008240    0.009136
     0.009271    0.011713    0.013844    0.014018    0.020963    0.022229
     0.050512    0.060389    0.065985    0.073692    0.074669    0.075772
     0.100690    0.113169    0.133259    0.139395    0.159999    0.160000
     0.160000    0.160000    0.160000    0.220000    0.220186    0.220582
     0.238427    0.249985    0.249999    0.250000    0.250000    0.250000
     0.250000    0.250000    0.264515    0.316396    0.316439    0.324384
     0.324495    0.324504    0.324753    0.325431    0.325701    0.325822
     0.326028    0.383485    0.425273    0.529873    0.538959    0.549731
     0.939729    0.945015    0.950766

 Minimum Search - Taking Simple RFO Step
 Searching for Lamda that Minimizes Along All modes
 Value Taken    Lamda =  -0.02012105
 Calculated Step too Large.  Step scaled by  0.843173
 Step Taken.  Stepsize is  0.300000

                             Maximum     Tolerance    Cnvgd?
         Gradient           0.021717      0.000300      NO
         Displacement       0.107897      0.001200      NO
         Energy change     *********      0.000001      NO


 New Cartesian Coordinates Obtained by Inverse Iteration

 Displacement from previous Coordinates is:  0.725283
 ----------------------------------------------------------------
             Standard Nuclear Orientation (Angstroms)
    I     Atom           X                Y                Z
 ----------------------------------------------------------------
    1      C      -2.2760354980     0.1236135312    -0.7356634058
    2      H      -1.8084130433    -0.4489997973    -1.5461422277
    3      H      -2.7627469096     0.9982182425    -1.1979967725
    4      C      -1.1991483020     0.6281448053     0.2086872746
    5      O      -1.1978136101     0.3631799927     1.3924624795
    6      S       0.1043730589     1.6892338692    -0.5125274965
    7      C       1.3194806298     0.3637320928    -0.8950026123
    8      H       0.8162024567    -0.6101340274    -0.9664754375
    9      H       1.7517979243     0.5731349560    -1.8819128955
   10      N       2.3538419429     0.3101362245     0.1176950163
   11      H       2.3041530318     0.9476509501     0.9056594932
   12      C       3.3737786556    -0.5912010448     0.0151355671
   13      O       3.4342040080    -1.3692184184    -0.9340895997
   14      C       4.4057906685    -0.5728028448     1.1230404434
   15      H       4.9046985605     0.4056342077     1.1871207216
   16      H       5.1544782364    -1.3396675899     0.9116327598
   17      H       3.9460293285    -0.7814824866     2.1002721158
   18      C      -3.3130923175    -0.7681063733    -0.0712873007
   19      O      -3.5038359840    -1.9082628788    -0.4293836198
   20      O      -4.0570938509    -0.2471242547     0.9180710886
   21      H      -3.8258074277     0.6650298854     1.1481811209
 ----------------------------------------------------------------
 Molecular Point Group                 C1    NOp =  1
 Largest Abelian Subgroup              C1    NOp =  1
 Nuclear Repulsion Energy =   778.1303122676 hartrees
 There are       50 alpha and       50 beta electrons
 Applying Cartesian multipole field
    Component          Value
    ---------          -----
     (2,0,0)        1.00000E-11
     (0,2,0)        2.00000E-11
     (0,0,2)       -3.00000E-11
 Nucleus-field energy     =     0.0000000282 hartrees
 Requested basis set is 6-31G(d)
 There are 67 shells and 202 basis functions
 A cutoff of  1.0D-11 yielded   1609 shell pairs
 There are     15226 function pairs
 Smallest overlap matrix eigenvalue = 3.25E-03
 Guess MOs from SCF MO coefficient file

 -----------------------------------------------------------------------
  General SCF calculation program by
  Eric Jon Sundstrom, Paul Horn, Yuezhi Mao, Dmitri Zuev, Alec White,
  David Stuck, Shaama M.S., Shane Yost, Joonho Lee, David Small,
  Daniel Levine, Susi Lehtola, Hugh Burton, Evgeny Epifanovsky
 -----------------------------------------------------------------------
 Exchange:     0.2000 Hartree-Fock + 0.0800 Slater + 0.7200 B88
 Correlation:  0.1900 VWN1RPA + 0.8100 LYP
 Using SG-1 standard quadrature grid
 using 8 threads for integral computing
 -------------------------------------------------------
 OpenMP Integral computing Module                
 Release: version 1.0, May 2013, Q-Chem Inc. Pittsburgh 
 -------------------------------------------------------
 -------------------------------------------------------
 OpenMP BLAS3 based DFT computing Module                
 Release: version 1.0, May 2013, Q-Chem Inc. Pittsburgh 
 -------------------------------------------------------
 A restricted SCF calculation will be
 performed using DIIS
 SCF converges when DIIS error is below 1.0e-08
 ---------------------------------------
  Cycle       Energy         DIIS error
 ---------------------------------------
    1    -987.8765309006      1.18e-03  
    2    -987.8887077110      3.29e-04  
    3    -987.8880739508      5.42e-04  
    4    -987.8891726473      1.03e-04  
    5    -987.8892162568      2.80e-05  
    6    -987.8892194221      8.97e-06  
    7    -987.8892197101      3.88e-06  
    8    -987.8892197626      1.87e-06  
    9    -987.8892197776      3.85e-07  
   10    -987.8892197784      8.14e-08  
   11    -987.8892197785      4.03e-08  
   12    -987.8892197785      1.88e-08  
   13    -987.8892197785      8.72e-09  Convergence criterion met
 ---------------------------------------
 SCF time:   CPU 72.35s  wall 9.00s 
 SCF   energy in the final basis set =     -987.8892197785
 Total energy in the final basis set =     -987.8892197785
 
 --------------------------------------------------------------
 
                    Orbital Energies (a.u.)
 --------------------------------------------------------------
 
 Alpha MOs
 -- Occupied --
-88.909 -19.210 -19.199 -19.145 -19.117 -14.374 -10.344 -10.338
-10.295 -10.280 -10.246 -10.199  -7.972  -5.937  -5.934  -5.926
 -1.117  -1.095  -1.038  -1.028  -0.936  -0.827  -0.793  -0.746
 -0.683  -0.641  -0.604  -0.585  -0.534  -0.523  -0.511  -0.497
 -0.484  -0.479  -0.456  -0.449  -0.437  -0.432  -0.412  -0.409
 -0.401  -0.388  -0.372  -0.361  -0.328  -0.304  -0.282  -0.274
 -0.265  -0.251
 -- Virtual --
 -0.079  -0.018   0.014   0.020   0.034   0.045   0.079   0.090
  0.115   0.129   0.132   0.144   0.154   0.167   0.176   0.190
  0.224   0.228   0.251   0.296   0.308   0.330   0.342   0.348
  0.377   0.415   0.427   0.471   0.492   0.510   0.532   0.538
  0.545   0.551   0.578   0.599   0.612   0.616   0.624   0.650
  0.650   0.670   0.695   0.723   0.747   0.762   0.775   0.784
  0.804   0.811   0.817   0.826   0.845   0.864   0.869   0.874
  0.876   0.889   0.897   0.906   0.913   0.921   0.935   0.941
  0.949   0.955   0.986   1.014   1.034   1.046   1.073   1.082
  1.091   1.110   1.137   1.182   1.234   1.309   1.340   1.364
  1.373   1.375   1.401   1.428   1.471   1.499   1.524   1.555
  1.576   1.622   1.648   1.689   1.708   1.719   1.753   1.771
  1.789   1.807   1.812   1.813   1.831   1.873   1.891   1.909
  1.918   1.937   1.938   1.982   2.007   2.029   2.042   2.052
  2.114   2.127   2.146   2.194   2.248   2.268   2.290   2.344
  2.346   2.383   2.441   2.448   2.453   2.526   2.545   2.555
  2.627   2.643   2.650   2.661   2.785   2.852   2.863   2.924
  2.960   2.968   3.064   3.127   3.824   3.865   3.914   3.934
  4.017   4.049   4.164   4.178   4.274   4.295   4.458   4.529
 --------------------------------------------------------------
 
          Ground-State Mulliken Net Atomic Charges

     Atom                 Charge (a.u.)
  ----------------------------------------
      1 C                    -0.465814
      2 H                     0.227905
      3 H                     0.206752
      4 C                     0.237269
      5 O                    -0.357825
      6 S                     0.101017
      7 C                    -0.270592
      8 H                     0.204273
      9 H                     0.212669
     10 N                    -0.577056
     11 H                     0.346268
     12 C                     0.586349
     13 O                    -0.503984
     14 C                    -0.545602
     15 H                     0.169215
     16 H                     0.193990
     17 H                     0.173364
     18 C                     0.616644
     19 O                    -0.428225
     20 O                    -0.540933
     21 H                     0.414315
  ----------------------------------------
  Sum of atomic charges =    -0.000000

 -----------------------------------------------------------------
                    Cartesian Multipole Moments
 -----------------------------------------------------------------
    Charge (ESU x 10^10)
                -0.0000
    Dipole Moment (Debye)
         X       0.8288      Y       5.1949      Z       0.6808
       Tot       5.3044
    Quadrupole Moments (Debye-Ang)
        XX     -81.4614     XY      -7.9863     YY     -84.4467
        XZ      10.0451     YZ      -1.9370     ZZ     -76.9503
    Octopole Moments (Debye-Ang^2)
       XXX      30.7221    XXY      79.1289    XYY       0.2570
       YYY       7.3539    XXZ      34.6595    XYZ     -12.6556
       YYZ      13.4916    XZZ      -4.1201    YZZ       1.5593
       ZZZ       5.1387
    Hexadecapole Moments (Debye-Ang^3)
      XXXX   -3655.0008   XXXY    -149.7334   XXYY    -756.5510
      XYYY     -33.1106   YYYY    -596.5327   XXXZ     119.0487
      XXYZ     -24.4916   XYYZ      -2.0405   YYYZ       4.2083
      XXZZ    -650.7007   XYZZ       2.6192   YYZZ    -159.4997
      XZZZ      -4.8402   YZZZ      12.5017   ZZZZ    -364.6214
 -----------------------------------------------------------------
 Calculating analytic gradient of the SCF energy
 Gradient of SCF Energy
            1           2           3           4           5           6
    1  -0.0010845   0.0012689  -0.0017155   0.0049367   0.0002190  -0.0037375
    2  -0.0061687  -0.0017763   0.0014272   0.0088701  -0.0039960  -0.0043092
    3   0.0035966  -0.0004273   0.0006300  -0.0226968   0.0110020   0.0091928
            7           8           9          10          11          12
    1  -0.0021627   0.0004430   0.0011222  -0.0009962   0.0013020  -0.0015763
    2   0.0039641  -0.0024126  -0.0011044  -0.0062842   0.0023601   0.0086044
    3   0.0018783   0.0007973  -0.0022914  -0.0079862   0.0031344   0.0089309
           13          14          15          16          17          18
    1   0.0011251  -0.0020714   0.0012819   0.0012286  -0.0008816   0.0019717
    2  -0.0027212  -0.0025374   0.0018883  -0.0008394  -0.0007806   0.0159165
    3  -0.0022449  -0.0051766  -0.0001792   0.0001119   0.0019100   0.0048680
           19          20          21
    1  -0.0025203   0.0072529  -0.0054060
    2  -0.0078275  -0.0014844  -0.0007887
    3  -0.0014520  -0.0043481   0.0007503
 Max gradient component =       2.270E-02
 RMS gradient           =       5.299E-03
 Gradient time:  CPU 26.29 s  wall 3.35 s
 Geometry Optimization Parameters
   NAtoms,    NIC,     NZ,  NCons,   NDum,   NFix, NCnnct, MaxDiis
       21     129       0       0       0       0       0       0

 Cartesian Hessian Update
 Hessian Updated using BFGS Update


** GEOMETRY OPTIMIZATION IN DELOCALIZED INTERNAL COORDINATES **
   Searching for a Minimum

   Optimization Cycle:   2

                       Coordinates (Angstroms)
     ATOM                X               Y               Z
      1  C        -2.2760354980    0.1236135312   -0.7356634058
      2  H        -1.8084130433   -0.4489997973   -1.5461422277
      3  H        -2.7627469096    0.9982182425   -1.1979967725
      4  C        -1.1991483020    0.6281448053    0.2086872746
      5  O        -1.1978136101    0.3631799927    1.3924624795
      6  S         0.1043730589    1.6892338692   -0.5125274965
      7  C         1.3194806298    0.3637320928   -0.8950026123
      8  H         0.8162024567   -0.6101340274   -0.9664754375
      9  H         1.7517979243    0.5731349560   -1.8819128955
     10  N         2.3538419429    0.3101362245    0.1176950163
     11  H         2.3041530318    0.9476509501    0.9056594932
     12  C         3.3737786556   -0.5912010448    0.0151355671
     13  O         3.4342040080   -1.3692184184   -0.9340895997
     14  C         4.4057906685   -0.5728028448    1.1230404434
     15  H         4.9046985605    0.4056342077    1.1871207216
     16  H         5.1544782364   -1.3396675899    0.9116327598
     17  H         3.9460293285   -0.7814824866    2.1002721158
     18  C        -3.3130923175   -0.7681063733   -0.0712873007
     19  O        -3.5038359840   -1.9082628788   -0.4293836198
     20  O        -4.0570938509   -0.2471242547    0.9180710886
     21  H        -3.8258074277    0.6650298854    1.1481811209
   Point Group: c1    Number of degrees of freedom:    57


   Energy is   -987.889219779

 Hessian Updated using BFGS Update

 53 Hessian modes will be used to form the next step
  Hessian Eigenvalues:
     0.001999    0.002005    0.006728    0.008128    0.008237    0.009137
     0.009271    0.011750    0.013843    0.014019    0.020963    0.021860
     0.050597    0.060537    0.065824    0.073624    0.074669    0.075822
     0.100668    0.112483    0.133380    0.139400    0.153347    0.159999
     0.165681    0.216292    0.220431    0.220558    0.226819    0.238594
     0.249991    0.249999    0.250000    0.260915    0.266515    0.314189
     0.316748    0.323957    0.324412    0.324538    0.325146    0.325571
     0.325748    0.325965    0.333745    0.384138    0.425074    0.528758
     0.538877    0.563987    0.922126    0.946633    0.958314

 Minimum Search - Taking Simple RFO Step
 Searching for Lamda that Minimizes Along All modes
 Value Taken    Lamda =  -0.00577457
 Calculated Step too Large.  Step scaled by  0.533547
 Step Taken.  Stepsize is  0.300000

                             Maximum     Tolerance    Cnvgd?
         Gradient           0.011275      0.000300      NO
         Displacement       0.105681      0.001200      NO
         Energy change     -0.011188      0.000001      NO


 New Cartesian Coordinates Obtained by Inverse Iteration

 Displacement from previous Coordinates is:  1.118563
 ----------------------------------------------------------------
             Standard Nuclear Orientation (Angstroms)
    I     Atom           X                Y                Z
 ----------------------------------------------------------------
    1      C      -2.2907572089     0.1346278572    -0.7290571949
    2      H      -1.8774662639    -0.4151907131    -1.5808809657
    3      H      -2.8005314711     1.0170155013    -1.1447446943
    4      C      -1.1567540226     0.6285581578     0.1559088608
    5      O      -1.0936055843     0.3933369362     1.3392592204
    6      S       0.1031329971     1.6845558151    -0.6754557823
    7      C       1.3541605235     0.3765107976    -1.0030867090
    8      H       0.8611289455    -0.5942399653    -1.1311085992
    9      H       1.8413057406     0.6169996296    -1.9536412185
   10      N       2.3222416531     0.3084465199     0.0743657129
   11      H       2.2091590970     0.9207660782     0.8710609592
   12      C       3.3540068776    -0.5867586333     0.0115663111
   13      O       3.4829887397    -1.3364019174    -0.9517516542
   14      C       4.3045095754    -0.5815283785     1.1946105486
   15      H       4.7827741458     0.3987023891     1.3165141094
   16      H       5.0740666269    -1.3345808787     1.0208552841
   17      H       3.7782584607    -0.8152641529     2.1287113238
   18      C      -3.2852990838    -0.7832380002    -0.0242600244
   19      O      -3.5154390760    -1.9019273971    -0.4137157996
   20      O      -3.9244606843    -0.2897491955     1.0528609639
   21      H      -3.5985784290     0.5900685915     1.2994660604
 ----------------------------------------------------------------
 Molecular Point Group                 C1    NOp =  1
 Largest Abelian Subgroup              C1    NOp =  1
 Nuclear Repulsion Energy =   779.1521142116 hartrees
 There are       50 alpha and       50 beta electrons
 Applying Cartesian multipole field
    Component          Value
    ---------          -----
     (2,0,0)        1.00000E-11
     (0,2,0)        2.00000E-11
     (0,0,2)       -3.00000E-11
 Nucleus-field energy     =     0.0000000266 hartrees
 Requested basis set is 6-31G(d)
 There are 67 shells and 202 basis functions
 A cutoff of  1.0D-11 yielded   1618 shell pairs
 There are     15235 function pairs
 Smallest overlap matrix eigenvalue = 3.30E-03
 Guess MOs from SCF MO coefficient file

 -----------------------------------------------------------------------
  General SCF calculation program by
  Eric Jon Sundstrom, Paul Horn, Yuezhi Mao, Dmitri Zuev, Alec White,
  David Stuck, Shaama M.S., Shane Yost, Joonho Lee, David Small,
  Daniel Levine, Susi Lehtola, Hugh Burton, Evgeny Epifanovsky
 -----------------------------------------------------------------------
 Exchange:     0.2000 Hartree-Fock + 0.0800 Slater + 0.7200 B88
 Correlation:  0.1900 VWN1RPA + 0.8100 LYP
 Using SG-1 standard quadrature grid
 using 8 threads for integral computing
 -------------------------------------------------------
 OpenMP Integral computing Module                
 Release: version 1.0, May 2013, Q-Chem Inc. Pittsburgh 
 -------------------------------------------------------
 -------------------------------------------------------
 OpenMP BLAS3 based DFT computing Module                
 Release: version 1.0, May 2013, Q-Chem Inc. Pittsburgh 
 -------------------------------------------------------
 A restricted SCF calculation will be
 performed using DIIS
 SCF converges when DIIS error is below 1.0e-08
 ---------------------------------------
  Cycle       Energy         DIIS error
 ---------------------------------------
    1    -987.8715845595      1.43e-03  
    2    -987.8915558062      2.13e-04  
    3    -987.8915792026      2.81e-04  
    4    -987.8918584757      8.80e-05  
    5    -987.8918884608      2.28e-05  
    6    -987.8918905683      7.83e-06  
    7    -987.8918908171      2.54e-06  
    8    -987.8918908398      1.43e-06  
    9    -987.8918908479      3.48e-07  
   10    -987.8918908485      1.25e-07  
   11    -987.8918908486      2.67e-08  
   12    -987.8918908486      1.00e-08  
   13    -987.8918908486      2.48e-09  Convergence criterion met
 ---------------------------------------
 SCF time:   CPU 72.51s  wall 9.00s 
 SCF   energy in the final basis set =     -987.8918908486
 Total energy in the final basis set =     -987.8918908486
 
 --------------------------------------------------------------
 
                    Orbital Energies (a.u.)
 --------------------------------------------------------------
 
 Alpha MOs
 -- Occupied --
-88.909 -19.209 -19.203 -19.147 -19.118 -14.373 -10.347 -10.338
-10.295 -10.279 -10.247 -10.198  -7.972  -5.937  -5.934  -5.926
 -1.117  -1.100  -1.038  -1.031  -0.936  -0.826  -0.792  -0.746
 -0.682  -0.638  -0.604  -0.586  -0.536  -0.522  -0.512  -0.498
 -0.486  -0.478  -0.457  -0.450  -0.438  -0.433  -0.414  -0.409
 -0.402  -0.390  -0.373  -0.362  -0.329  -0.305  -0.284  -0.275
 -0.265  -0.252
 -- Virtual --
 -0.080  -0.019   0.015   0.020   0.032   0.045   0.081   0.091
  0.115   0.131   0.134   0.146   0.152   0.168   0.177   0.186
  0.222   0.227   0.252   0.295   0.306   0.331   0.342   0.347
  0.377   0.415   0.425   0.468   0.492   0.506   0.532   0.537
  0.545   0.552   0.577   0.599   0.612   0.621   0.626   0.649
  0.653   0.668   0.694   0.722   0.747   0.758   0.772   0.791
  0.801   0.809   0.817   0.826   0.847   0.861   0.871   0.876
  0.881   0.887   0.897   0.905   0.909   0.920   0.935   0.941
  0.949   0.955   0.992   1.009   1.036   1.049   1.068   1.084
  1.091   1.105   1.131   1.181   1.228   1.310   1.344   1.363
  1.364   1.373   1.401   1.427   1.470   1.497   1.526   1.561
  1.574   1.621   1.647   1.692   1.700   1.723   1.750   1.765
  1.789   1.807   1.811   1.812   1.827   1.865   1.886   1.907
  1.916   1.936   1.938   1.981   2.007   2.029   2.035   2.046
  2.113   2.127   2.146   2.196   2.250   2.271   2.292   2.343
  2.349   2.382   2.426   2.447   2.454   2.525   2.547   2.555
  2.631   2.644   2.647   2.660   2.780   2.855   2.865   2.925
  2.961   2.971   3.060   3.125   3.818   3.863   3.914   3.938
  4.018   4.047   4.168   4.181   4.273   4.299   4.460   4.528
 --------------------------------------------------------------
 
          Ground-State Mulliken Net Atomic Charges

     Atom                 Charge (a.u.)
  ----------------------------------------
      1 C                    -0.469007
      2 H                     0.227940
      3 H                     0.210981
      4 C                     0.238435
      5 O                    -0.358384
      6 S                     0.096118
      7 C                    -0.269586
      8 H                     0.203415
      9 H                     0.213897
     10 N                    -0.577317
     11 H                     0.347197
     12 C                     0.585565
     13 O                    -0.502683
     14 C                    -0.546178
     15 H                     0.170228
     16 H                     0.193066
     17 H                     0.174106
     18 C                     0.615917
     19 O                    -0.425903
     20 O                    -0.542916
     21 H                     0.415111
  ----------------------------------------
  Sum of atomic charges =     0.000000

 -----------------------------------------------------------------
                    Cartesian Multipole Moments
 -----------------------------------------------------------------
    Charge (ESU x 10^10)
                -0.0000
    Dipole Moment (Debye)
         X       0.7234      Y       4.9787      Z       0.7926
       Tot       5.0931
    Quadrupole Moments (Debye-Ang)
        XX     -83.6579     XY      -7.4898     YY     -84.4196
        XZ      10.0138     YZ      -1.7576     ZZ     -76.5303
    Octopole Moments (Debye-Ang^2)
       XXX      24.4349    XXY      75.8321    XYY       0.1455
       YYY       5.8443    XXZ      35.5203    XYZ     -13.2291
       YYZ      15.0053    XZZ      -4.7267    YZZ       1.8661
       ZZZ      11.9354
    Hexadecapole Moments (Debye-Ang^3)
      XXXX   -3623.3716   XXXY    -133.4641   XXYY    -746.5999
      XYYY     -37.9995   YYYY    -593.5296   XXXZ     142.5001
      XXYZ     -22.4029   XYYZ       2.0297   YYYZ      19.9048
      XXZZ    -644.5035   XYZZ       0.6621   YYZZ    -164.7176
      XZZZ       1.3345   YZZZ      29.6703   ZZZZ    -398.9909
 -----------------------------------------------------------------
 Calculating analytic gradient of the SCF energy
 Gradient of SCF Energy
            1           2           3           4           5           6
    1  -0.0012514   0.0000445  -0.0003892   0.0041544  -0.0005888  -0.0020962
    2  -0.0024794  -0.0010492   0.0004409   0.0031207  -0.0015416  -0.0016826
    3   0.0020534   0.0001118   0.0002762  -0.0118864   0.0048937   0.0077891
            7           8           9          10          11          12
    1  -0.0011197   0.0004092   0.0005200  -0.0005614   0.0010185  -0.0012045
    2   0.0018857  -0.0009423  -0.0014800  -0.0019900   0.0006526   0.0046191
    3  -0.0021722   0.0009805  -0.0006884  -0.0025532   0.0008157   0.0048099
           13          14          15          16          17          18
    1   0.0007258  -0.0007634   0.0004679   0.0000896  -0.0001040  -0.0004308
    2  -0.0021145  -0.0009303   0.0004882  -0.0000549  -0.0001912   0.0087717
    3  -0.0021383  -0.0021953   0.0001624   0.0000074   0.0006193   0.0019144
           19          20          21
    1  -0.0005178   0.0044686  -0.0028715
    2  -0.0041434  -0.0016169   0.0002374
    3  -0.0000993  -0.0021522  -0.0005484
 Max gradient component =       1.189E-02
 RMS gradient           =       2.818E-03
 Gradient time:  CPU 26.31 s  wall 3.34 s
 Geometry Optimization Parameters
   NAtoms,    NIC,     NZ,  NCons,   NDum,   NFix, NCnnct, MaxDiis
       21     129       0       0       0       0       0       0

 Cartesian Hessian Update
 Hessian Updated using BFGS Update


** GEOMETRY OPTIMIZATION IN DELOCALIZED INTERNAL COORDINATES **
   Searching for a Minimum

   Optimization Cycle:   3

                       Coordinates (Angstroms)
     ATOM                X               Y               Z
      1  C        -2.2907572089    0.1346278572   -0.7290571949
      2  H        -1.8774662639   -0.4151907131   -1.5808809657
      3  H        -2.8005314711    1.0170155013   -1.1447446943
      4  C        -1.1567540226    0.6285581578    0.1559088608
      5  O        -1.0936055843    0.3933369362    1.3392592204
      6  S         0.1031329971    1.6845558151   -0.6754557823
      7  C         1.3541605235    0.3765107976   -1.0030867090
      8  H         0.8611289455   -0.5942399653   -1.1311085992
      9  H         1.8413057406    0.6169996296   -1.9536412185
     10  N         2.3222416531    0.3084465199    0.0743657129
     11  H         2.2091590970    0.9207660782    0.8710609592
     12  C         3.3540068776   -0.5867586333    0.0115663111
     13  O         3.4829887397   -1.3364019174   -0.9517516542
     14  C         4.3045095754   -0.5815283785    1.1946105486
     15  H         4.7827741458    0.3987023891    1.3165141094
     16  H         5.0740666269   -1.3345808787    1.0208552841
     17  H         3.7782584607   -0.8152641529    2.1287113238
     18  C        -3.2852990838   -0.7832380002   -0.0242600244
     19  O        -3.5154390760   -1.9019273971   -0.4137157996
     20  O        -3.9244606843   -0.2897491955    1.0528609639
     21  H        -3.5985784290    0.5900685915    1.2994660604
   Point Group: c1    Number of degrees of freedom:    57


   Energy is   -987.891890849

 Hessian Updated using BFGS Update

 55 Hessian modes will be used to form the next step
  Hessian Eigenvalues:
     0.000991    0.002149    0.006287    0.007920    0.008239    0.009134
     0.009271    0.012750    0.013827    0.014021    0.020811    0.020989
     0.050703    0.060258    0.066088    0.073772    0.074670    0.075851
     0.100486    0.111279    0.133140    0.139065    0.158623    0.160000
     0.161536    0.174916    0.208337    0.220408    0.221217    0.238276
     0.240048    0.249993    0.250000    0.250000    0.259330    0.261633
     0.283073    0.313817    0.317760    0.324265    0.324427    0.324577
     0.325504    0.325738    0.325935    0.326908    0.358056    0.384508
     0.438014    0.528523    0.539205    0.561820    0.938583    0.952969
     0.960581

 Minimum Search - Taking Simple RFO Step
 Searching for Lamda that Minimizes Along All modes
 Value Taken    Lamda =  -0.00649761
 Calculated Step too Large.  Step scaled by  0.354169
 Step Taken.  Stepsize is  0.300000

                             Maximum     Tolerance    Cnvgd?
         Gradient           0.005621      0.000300      NO
         Displacement       0.100435      0.001200      NO
         Energy change     -0.002671      0.000001      NO


 New Cartesian Coordinates Obtained by Inverse Iteration

 Displacement from previous Coordinates is:  1.089544
 ----------------------------------------------------------------
             Standard Nuclear Orientation (Angstroms)
    I     Atom           X                Y                Z
 ----------------------------------------------------------------
    1      C      -2.3142888639     0.1668959617    -0.7202505582
    2      H      -1.9673589194    -0.3407023693    -1.6246219623
    3      H      -2.8490009450     1.0651585793    -1.0609061932
    4      C      -1.1187103624     0.6352149931     0.0967336016
    5      O      -0.9650228240     0.3827241395     1.2645476671
    6      S       0.1045442543     1.6647035666    -0.8404725283
    7      C       1.3849771889     0.3681510244    -1.0931335545
    8      H       0.9060664767    -0.6032388526    -1.2539493534
    9      H       1.9144141214     0.6226337322    -2.0153083183
   10      N       2.2951143753     0.3045796349     0.0351915875
   11      H       2.1261083939     0.9061795172     0.8275623526
   12      C       3.3367445435    -0.5843846496     0.0198955407
   13      O       3.5251836497    -1.3221388627    -0.9408967139
   14      C       4.2149242038    -0.5759096630     1.2606835776
   15      H       4.6718248537     0.4079511569     1.4162562178
   16      H       5.0013085944    -1.3190571909     1.1301233310
   17      H       3.6350431691    -0.8198273966     2.1578968360
   18      C      -3.2582155050    -0.7901280076     0.0119689371
   19      O      -3.5535882096    -1.8680018127    -0.4358270174
   20      O      -3.7904752395    -0.3510971124     1.1714878861
   21      H      -3.3747513971     0.4810026530     1.4504953771
 ----------------------------------------------------------------
 Molecular Point Group                 C1    NOp =  1
 Largest Abelian Subgroup              C1    NOp =  1
 Nuclear Repulsion Energy =   780.1904833638 hartrees
 There are       50 alpha and       50 beta electrons
 Applying Cartesian multipole field
    Component          Value
    ---------          -----
     (2,0,0)        1.00000E-11
     (0,2,0)        2.00000E-11
     (0,0,2)       -3.00000E-11
 Nucleus-field energy     =     0.0000000250 hartrees
 Requested basis set is 6-31G(d)
 There are 67 shells and 202 basis functions
 A cutoff of  1.0D-11 yielded   1626 shell pairs
 There are     15362 function pairs
 Smallest overlap matrix eigenvalue = 3.35E-03
 Guess MOs from SCF MO coefficient file

 -----------------------------------------------------------------------
  General SCF calculation program by
  Eric Jon Sundstrom, Paul Horn, Yuezhi Mao, Dmitri Zuev, Alec White,
  David Stuck, Shaama M.S., Shane Yost, Joonho Lee, David Small,
  Daniel Levine, Susi Lehtola, Hugh Burton, Evgeny Epifanovsky
 -----------------------------------------------------------------------
 Exchange:     0.2000 Hartree-Fock + 0.0800 Slater + 0.7200 B88
 Correlation:  0.1900 VWN1RPA + 0.8100 LYP
 Using SG-1 standard quadrature grid
 using 8 threads for integral computing
 -------------------------------------------------------
 OpenMP Integral computing Module                
 Release: version 1.0, May 2013, Q-Chem Inc. Pittsburgh 
 -------------------------------------------------------
 -------------------------------------------------------
 OpenMP BLAS3 based DFT computing Module                
 Release: version 1.0, May 2013, Q-Chem Inc. Pittsburgh 
 -------------------------------------------------------
 A restricted SCF calculation will be
 performed using DIIS
 SCF converges when DIIS error is below 1.0e-08
 ---------------------------------------
  Cycle       Energy         DIIS error
 ---------------------------------------
    1    -987.8696555329      1.57e-03  
    2    -987.8937011646      2.21e-04  
    3    -987.8938871861      2.25e-04  
    4    -987.8940502429      9.85e-05  
    5    -987.8940861204      2.81e-05  
    6    -987.8940892235      8.07e-06  
    7    -987.8940895084      2.12e-06  
    8    -987.8940895282      1.06e-06  
    9    -987.8940895324      4.05e-07  
   10    -987.8940895331      1.39e-07  
   11    -987.8940895332      2.57e-08  
   12    -987.8940895332      1.08e-08  
   13    -987.8940895332      3.57e-09  Convergence criterion met
 ---------------------------------------
 SCF time:   CPU 73.21s  wall 9.00s 
 SCF   energy in the final basis set =     -987.8940895332
 Total energy in the final basis set =     -987.8940895332
 
 --------------------------------------------------------------
 
                    Orbital Energies (a.u.)
 --------------------------------------------------------------
 
 Alpha MOs
 -- Occupied --
-88.909 -19.209 -19.206 -19.149 -19.118 -14.372 -10.349 -10.339
-10.295 -10.278 -10.247 -10.197  -7.972  -5.937  -5.934  -5.926
 -1.118  -1.104  -1.039  -1.033  -0.936  -0.826  -0.792  -0.745
 -0.681  -0.635  -0.603  -0.587  -0.538  -0.521  -0.513  -0.499
 -0.487  -0.478  -0.458  -0.451  -0.439  -0.434  -0.415  -0.410
 -0.403  -0.391  -0.373  -0.363  -0.330  -0.306  -0.285  -0.276
 -0.265  -0.253
 -- Virtual --
 -0.079  -0.019   0.015   0.020   0.031   0.048   0.083   0.093
  0.114   0.131   0.135   0.147   0.150   0.168   0.178   0.183
  0.221   0.225   0.255   0.296   0.305   0.332   0.342   0.346
  0.377   0.415   0.421   0.469   0.493   0.503   0.531   0.535
  0.544   0.553   0.575   0.598   0.612   0.625   0.627   0.650
  0.655   0.666   0.692   0.721   0.747   0.756   0.766   0.797
  0.800   0.808   0.817   0.826   0.847   0.858   0.871   0.877
  0.886   0.891   0.897   0.902   0.907   0.920   0.932   0.942
  0.951   0.956   0.995   1.004   1.038   1.050   1.063   1.080
  1.097   1.099   1.125   1.181   1.219   1.310   1.349   1.353
  1.363   1.373   1.400   1.428   1.475   1.495   1.523   1.560
  1.579   1.617   1.646   1.690   1.696   1.726   1.749   1.762
  1.789   1.804   1.809   1.811   1.822   1.857   1.883   1.905
  1.916   1.938   1.941   1.982   2.006   2.024   2.031   2.043
  2.111   2.126   2.145   2.198   2.253   2.274   2.293   2.340
  2.350   2.381   2.417   2.444   2.458   2.524   2.544   2.556
  2.631   2.644   2.646   2.658   2.777   2.857   2.868   2.926
  2.963   2.974   3.056   3.124   3.814   3.863   3.914   3.941
  4.018   4.043   4.171   4.183   4.270   4.306   4.461   4.526
 --------------------------------------------------------------
 
          Ground-State Mulliken Net Atomic Charges

     Atom                 Charge (a.u.)
  ----------------------------------------
      1 C                    -0.470384
      2 H                     0.229557
      3 H                     0.213988
      4 C                     0.239789
      5 O                    -0.361892
      6 S                     0.092075
      7 C                    -0.267770
      8 H                     0.203313
      9 H                     0.214375
     10 N                    -0.577597
     11 H                     0.347589
     12 C                     0.585169
     13 O                    -0.501314
     14 C                    -0.546485
     15 H                     0.170794
     16 H                     0.192287
     17 H                     0.174642
     18 C                     0.616074
     19 O                    -0.423681
     20 O                    -0.546663
     21 H                     0.416132
  ----------------------------------------
  Sum of atomic charges =    -0.000000

 -----------------------------------------------------------------
                    Cartesian Multipole Moments
 -----------------------------------------------------------------
    Charge (ESU x 10^10)
                -0.0000
    Dipole Moment (Debye)
         X       0.6204      Y       4.8390      Z       0.9643
       Tot       4.9730
    Quadrupole Moments (Debye-Ang)
        XX     -85.6752     XY      -7.0340     YY     -84.3193
        XZ       9.5090     YZ      -1.5453     ZZ     -76.0235
    Octopole Moments (Debye-Ang^2)
       XXX      19.3575    XXY      74.1773    XYY      -0.6947
       YYY       5.0622    XXZ      37.2401    XYZ     -12.9810
       YYZ      16.8607    XZZ      -5.0549    YZZ       2.4277
       ZZZ      19.4921
    Hexadecapole Moments (Debye-Ang^3)
      XXXX   -3598.9817   XXXY    -122.0246   XXYY    -737.8087
      XYYY     -40.0846   YYYY    -582.5840   XXXZ     149.8218
      XXYZ     -21.6864   XYYZ       3.8860   YYYZ      35.5703
      XXZZ    -639.8819   XYZZ      -2.0092   YYZZ    -169.4730
      XZZZ      -1.1174   YZZZ      47.1268   ZZZZ    -433.8187
 -----------------------------------------------------------------
 Calculating analytic gradient of the SCF energy
 Gradient of SCF Energy
            1           2           3           4           5           6
    1  -0.0012775  -0.0009255   0.0012377   0.0008934  -0.0003453   0.0001476
    2  -0.0008957  -0.0006968   0.0001389   0.0024555  -0.0007574  -0.0004237
    3   0.0000383   0.0000946   0.0000665  -0.0015641  -0.0004572   0.0058740
            7           8           9          10          11          12
    1  -0.0004658   0.0003174  -0.0001039  -0.0005550   0.0007888  -0.0002649
    2   0.0008057  -0.0000955  -0.0016221   0.0001210  -0.0000058   0.0014826
    3  -0.0047550   0.0008715   0.0001370   0.0010636  -0.0006167   0.0014126
           13          14          15          16          17          18
    1   0.0003060  -0.0000798  -0.0000601  -0.0005170   0.0003818   0.0010413
    2  -0.0012226   0.0000680  -0.0003166   0.0003026   0.0001747   0.0015095
    3  -0.0014658  -0.0000091   0.0002095  -0.0001302  -0.0000928   0.0011933
           19          20          21
    1  -0.0001698   0.0014706  -0.0018199
    2  -0.0008990  -0.0010884   0.0009651
    3   0.0003498  -0.0009659  -0.0012538
 Max gradient component =       5.874E-03
 RMS gradient           =       1.286E-03
 Gradient time:  CPU 26.39 s  wall 3.34 s
 Geometry Optimization Parameters
   NAtoms,    NIC,     NZ,  NCons,   NDum,   NFix, NCnnct, MaxDiis
       21     129       0       0       0       0       0       0

 Cartesian Hessian Update
 Hessian Updated using BFGS Update


** GEOMETRY OPTIMIZATION IN DELOCALIZED INTERNAL COORDINATES **
   Searching for a Minimum

   Optimization Cycle:   4

                       Coordinates (Angstroms)
     ATOM                X               Y               Z
      1  C        -2.3142888639    0.1668959617   -0.7202505582
      2  H        -1.9673589194   -0.3407023693   -1.6246219623
      3  H        -2.8490009450    1.0651585793   -1.0609061932
      4  C        -1.1187103624    0.6352149931    0.0967336016
      5  O        -0.9650228240    0.3827241395    1.2645476671
      6  S         0.1045442543    1.6647035666   -0.8404725283
      7  C         1.3849771889    0.3681510244   -1.0931335545
      8  H         0.9060664767   -0.6032388526   -1.2539493534
      9  H         1.9144141214    0.6226337322   -2.0153083183
     10  N         2.2951143753    0.3045796349    0.0351915875
     11  H         2.1261083939    0.9061795172    0.8275623526
     12  C         3.3367445435   -0.5843846496    0.0198955407
     13  O         3.5251836497   -1.3221388627   -0.9408967139
     14  C         4.2149242038   -0.5759096630    1.2606835776
     15  H         4.6718248537    0.4079511569    1.4162562178
     16  H         5.0013085944   -1.3190571909    1.1301233310
     17  H         3.6350431691   -0.8198273966    2.1578968360
     18  C        -3.2582155050   -0.7901280076    0.0119689371
     19  O        -3.5535882096   -1.8680018127   -0.4358270174
     20  O        -3.7904752395   -0.3510971124    1.1714878861
     21  H        -3.3747513971    0.4810026530    1.4504953771
   Point Group: c1    Number of degrees of freedom:    57


   Energy is   -987.894089533

 Hessian Updated using BFGS Update

 57 Hessian modes will be used to form the next step
  Hessian Eigenvalues:
     0.000103    0.002647    0.006448    0.008207    0.009131    0.009271
     0.009837    0.013757    0.014020    0.019171    0.020969    0.031118
     0.050348    0.060291    0.067774    0.073760    0.074671    0.075896
     0.101425    0.113207    0.137420    0.139138    0.159948    0.160000
     0.160617    0.161708    0.177641    0.215903    0.221117    0.221849
     0.238478    0.245996    0.249993    0.250000    0.250000    0.257064
     0.260998    0.263859    0.302779    0.315442    0.321259    0.324340
     0.324453    0.324768    0.325506    0.325844    0.325998    0.329527
     0.382721    0.409807    0.507423    0.537841    0.554907    0.578551
     0.943384    0.957430    1.230117

 Minimum Search - Taking Simple RFO Step
 Searching for Lamda that Minimizes Along All modes
 Value Taken    Lamda =  -0.00742759
 Calculated Step too Large.  Step scaled by  0.309396
 Step Taken.  Stepsize is  0.300000

                             Maximum     Tolerance    Cnvgd?
         Gradient           0.002616      0.000300      NO
         Displacement       0.106582      0.001200      NO
         Energy change     -0.002199      0.000001      NO


 New Cartesian Coordinates Obtained by Inverse Iteration

 Displacement from previous Coordinates is:  1.111320
 ----------------------------------------------------------------
             Standard Nuclear Orientation (Angstroms)
    I     Atom           X                Y                Z
 ----------------------------------------------------------------
    1      C      -2.3554204937     0.2071051755    -0.7120253952
    2      H      -2.0981331893    -0.2481570142    -1.6709585002
    3      H      -2.8796980451     1.1411090388    -0.9564720286
    4      C      -1.0874277139     0.5988450915     0.0339819709
    5      O      -0.8545606490     0.3152774890     1.1777780797
    6      S       0.1021768468     1.6077606583    -0.9890412628
    7      C       1.4196884352     0.3355869792    -1.1624418074
    8      H       0.9661510577    -0.6429739028    -1.3431210196
    9      H       1.9768429636     0.6045698125    -2.0624762365
   10      N       2.2814583289     0.2947877140     0.0052233693
   11      H       2.0570107055     0.8882255126     0.7876088991
   12      C       3.3407208126    -0.5762555262     0.0342073958
   13      O       3.5871855570    -1.3053186080    -0.9177640652
   14      C       4.1548841511    -0.5476422426     1.3208044041
   15      H       4.5789158810     0.4457438381     1.4972873446
   16      H       4.9629957631    -1.2725495813     1.2325871728
   17      H       3.5342525328    -0.8031042997     2.1852774344
   18      C      -3.2801050662    -0.7704717558     0.0287260401
   19      O      -3.6840319906    -1.7801303648    -0.4812507861
   20      O      -3.6702810208    -0.4037987396     1.2710558681
   21      H      -3.1277833079     0.3420997670     1.5784898354
 ----------------------------------------------------------------
 Molecular Point Group                 C1    NOp =  1
 Largest Abelian Subgroup              C1    NOp =  1
 Nuclear Repulsion Energy =   780.4056127088 hartrees
 There are       50 alpha and       50 beta electrons
 Applying Cartesian multipole field
    Component          Value
    ---------          -----
     (2,0,0)        1.00000E-11
     (0,2,0)        2.00000E-11
     (0,0,2)       -3.00000E-11
 Nucleus-field energy     =     0.0000000237 hartrees
 Requested basis set is 6-31G(d)
 There are 67 shells and 202 basis functions
 A cutoff of  1.0D-11 yielded   1627 shell pairs
 There are     15323 function pairs
 Smallest overlap matrix eigenvalue = 3.40E-03
 Guess MOs from SCF MO coefficient file

 -----------------------------------------------------------------------
  General SCF calculation program by
  Eric Jon Sundstrom, Paul Horn, Yuezhi Mao, Dmitri Zuev, Alec White,
  David Stuck, Shaama M.S., Shane Yost, Joonho Lee, David Small,
  Daniel Levine, Susi Lehtola, Hugh Burton, Evgeny Epifanovsky
 -----------------------------------------------------------------------
 Exchange:     0.2000 Hartree-Fock + 0.0800 Slater + 0.7200 B88
 Correlation:  0.1900 VWN1RPA + 0.8100 LYP
 Using SG-1 standard quadrature grid
 using 8 threads for integral computing
 -------------------------------------------------------
 OpenMP Integral computing Module                
 Release: version 1.0, May 2013, Q-Chem Inc. Pittsburgh 
 -------------------------------------------------------
 -------------------------------------------------------
 OpenMP BLAS3 based DFT computing Module                
 Release: version 1.0, May 2013, Q-Chem Inc. Pittsburgh 
 -------------------------------------------------------
 A restricted SCF calculation will be
 performed using DIIS
 SCF converges when DIIS error is below 1.0e-08
 ---------------------------------------
  Cycle       Energy         DIIS error
 ---------------------------------------
    1    -987.8621064354      1.85e-03  
    2    -987.8956986044      2.93e-04  
    3    -987.8957974426      3.65e-04  
    4    -987.8962620656      1.11e-04  
    5    -987.8963043205      4.43e-05  
    6    -987.8963119281      7.94e-06  
    7    -987.8963122366      2.47e-06  
    8    -987.8963122623      1.30e-06  
    9    -987.8963122688      4.57e-07  
   10    -987.8963122697      1.49e-07  
   11    -987.8963122698      3.03e-08  
   12    -987.8963122698      1.52e-08  
   13    -987.8963122698      6.33e-09  Convergence criterion met
 ---------------------------------------
 SCF time:   CPU 73.53s  wall 9.00s 
 SCF   energy in the final basis set =     -987.8963122698
 Total energy in the final basis set =     -987.8963122698
 
 --------------------------------------------------------------
 
                    Orbital Energies (a.u.)
 --------------------------------------------------------------
 
 Alpha MOs
 -- Occupied --
-88.910 -19.209 -19.208 -19.151 -19.119 -14.371 -10.351 -10.340
-10.296 -10.277 -10.248 -10.197  -7.973  -5.937  -5.934  -5.927
 -1.119  -1.107  -1.040  -1.035  -0.935  -0.825  -0.792  -0.744
 -0.680  -0.632  -0.603  -0.587  -0.539  -0.521  -0.513  -0.501
 -0.488  -0.478  -0.459  -0.452  -0.440  -0.434  -0.417  -0.410
 -0.404  -0.391  -0.375  -0.364  -0.331  -0.307  -0.287  -0.278
 -0.265  -0.253
 -- Virtual --
 -0.079  -0.020   0.014   0.020   0.029   0.052   0.084   0.096
  0.113   0.132   0.135   0.147   0.150   0.167   0.179   0.181
  0.220   0.224   0.259   0.297   0.304   0.334   0.341   0.345
  0.376   0.415   0.417   0.472   0.492   0.498   0.531   0.534
  0.544   0.555   0.572   0.597   0.611   0.628   0.630   0.651
  0.656   0.663   0.689   0.719   0.746   0.756   0.763   0.800
  0.803   0.808   0.820   0.826   0.847   0.855   0.870   0.877
  0.887   0.894   0.896   0.900   0.908   0.920   0.928   0.945
  0.954   0.958   0.997   1.000   1.037   1.051   1.062   1.075
  1.090   1.112   1.123   1.184   1.207   1.308   1.344   1.355
  1.363   1.372   1.400   1.428   1.478   1.495   1.523   1.555
  1.581   1.612   1.643   1.681   1.699   1.731   1.744   1.758
  1.790   1.802   1.808   1.809   1.818   1.847   1.882   1.903
  1.915   1.938   1.945   1.983   2.005   2.020   2.027   2.041
  2.106   2.124   2.146   2.198   2.255   2.276   2.296   2.336
  2.350   2.381   2.410   2.442   2.461   2.523   2.541   2.555
  2.632   2.642   2.646   2.655   2.773   2.858   2.872   2.928
  2.964   2.978   3.053   3.123   3.815   3.862   3.913   3.944
  4.019   4.040   4.170   4.185   4.267   4.311   4.463   4.521
 --------------------------------------------------------------
 
          Ground-State Mulliken Net Atomic Charges

     Atom                 Charge (a.u.)
  ----------------------------------------
      1 C                    -0.472103
      2 H                     0.231243
      3 H                     0.217148
      4 C                     0.244122
      5 O                    -0.367821
      6 S                     0.090025
      7 C                    -0.265774
      8 H                     0.203475
      9 H                     0.213887
     10 N                    -0.577925
     11 H                     0.347471
     12 C                     0.584757
     13 O                    -0.499579
     14 C                    -0.546572
     15 H                     0.171263
     16 H                     0.191499
     17 H                     0.175036
     18 C                     0.615152
     19 O                    -0.420977
     20 O                    -0.552119
     21 H                     0.417790
  ----------------------------------------
  Sum of atomic charges =    -0.000000

 -----------------------------------------------------------------
                    Cartesian Multipole Moments
 -----------------------------------------------------------------
    Charge (ESU x 10^10)
                -0.0000
    Dipole Moment (Debye)
         X       0.6834      Y       4.6673      Z       1.1249
       Tot       4.8493
    Quadrupole Moments (Debye-Ang)
        XX     -88.7014     XY      -6.4344     YY     -83.7788
        XZ       9.0989     YZ      -1.3888     ZZ     -75.5754
    Octopole Moments (Debye-Ang^2)
       XXX      21.2576    XXY      74.1964    XYY      -1.6408
       YYY       5.1605    XXZ      39.0705    XYZ     -11.7528
       YYZ      18.2759    XZZ      -4.1436    YZZ       3.2922
       ZZZ      27.0019
    Hexadecapole Moments (Debye-Ang^3)
      XXXX   -3661.5799   XXXY    -116.3258   XXYY    -735.4911
      XYYY     -38.8286   YYYY    -547.1102   XXXZ     150.2270
      XXYZ     -24.5282   XYYZ       3.9561   YYYZ      48.5757
      XXZZ    -648.5054   XYZZ      -4.1962   YYZZ    -170.5075
      XZZZ      -8.4937   YZZZ      60.8543   ZZZZ    -467.3379
 -----------------------------------------------------------------
 Calculating analytic gradient of the SCF energy
 Gradient of SCF Energy
            1           2           3           4           5           6
    1  -0.0012986  -0.0015988   0.0025541   0.0004236  -0.0012412   0.0023160
    2   0.0013550  -0.0001830  -0.0002703  -0.0021881   0.0014047   0.0026881
    3  -0.0013709   0.0002974  -0.0003492   0.0089987  -0.0061308   0.0024148
            7           8           9          10          11          12
    1  -0.0000418   0.0002717  -0.0011923  -0.0006062   0.0002971   0.0011971
    2  -0.0006258   0.0006306  -0.0012580   0.0016031  -0.0003836  -0.0018688
    3  -0.0057080   0.0006330   0.0006394   0.0047227  -0.0021772  -0.0021105
           13          14          15          16          17          18
    1  -0.0002973   0.0003143  -0.0005234  -0.0010131   0.0008270   0.0004576
    2  -0.0000474   0.0010420  -0.0010574   0.0005679   0.0005239  -0.0050667
    3  -0.0005567   0.0021731   0.0001673  -0.0002855  -0.0006959  -0.0017394
           19          20          21
    1   0.0012389  -0.0012230  -0.0008618
    2   0.0021675  -0.0003302   0.0012964
    3   0.0017242   0.0014054  -0.0020518
 Max gradient component =       8.999E-03
 RMS gradient           =       2.168E-03
 Gradient time:  CPU 26.32 s  wall 3.35 s
 Geometry Optimization Parameters
   NAtoms,    NIC,     NZ,  NCons,   NDum,   NFix, NCnnct, MaxDiis
       21     129       0       0       0       0       0       0

 Cartesian Hessian Update
 Hessian Updated using BFGS Update


** GEOMETRY OPTIMIZATION IN DELOCALIZED INTERNAL COORDINATES **
   Searching for a Minimum

   Optimization Cycle:   5

                       Coordinates (Angstroms)
     ATOM                X               Y               Z
      1  C        -2.3554204937    0.2071051755   -0.7120253952
      2  H        -2.0981331893   -0.2481570142   -1.6709585002
      3  H        -2.8796980451    1.1411090388   -0.9564720286
      4  C        -1.0874277139    0.5988450915    0.0339819709
      5  O        -0.8545606490    0.3152774890    1.1777780797
      6  S         0.1021768468    1.6077606583   -0.9890412628
      7  C         1.4196884352    0.3355869792   -1.1624418074
      8  H         0.9661510577   -0.6429739028   -1.3431210196
      9  H         1.9768429636    0.6045698125   -2.0624762365
     10  N         2.2814583289    0.2947877140    0.0052233693
     11  H         2.0570107055    0.8882255126    0.7876088991
     12  C         3.3407208126   -0.5762555262    0.0342073958
     13  O         3.5871855570   -1.3053186080   -0.9177640652
     14  C         4.1548841511   -0.5476422426    1.3208044041
     15  H         4.5789158810    0.4457438381    1.4972873446
     16  H         4.9629957631   -1.2725495813    1.2325871728
     17  H         3.5342525328   -0.8031042997    2.1852774344
     18  C        -3.2801050662   -0.7704717558    0.0287260401
     19  O        -3.6840319906   -1.7801303648   -0.4812507861
     20  O        -3.6702810208   -0.4037987396    1.2710558681
     21  H        -3.1277833079    0.3420997670    1.5784898354
   Point Group: c1    Number of degrees of freedom:    57


   Energy is   -987.896312270

 Hessian Updated using BFGS Update

 57 Hessian modes will be used to form the next step
  Hessian Eigenvalues:
     0.000680    0.001972    0.005929    0.008463    0.009134    0.009271
     0.010239    0.013683    0.014020    0.016152    0.020974    0.027948
     0.048718    0.060206    0.067510    0.073828    0.074670    0.075907
     0.101197    0.114924    0.136110    0.140709    0.159958    0.160000
     0.161241    0.162542    0.178624    0.210768    0.221003    0.222129
     0.238690    0.248924    0.249999    0.250000    0.256696    0.257322
     0.262024    0.270225    0.303260    0.313987    0.321667    0.324144
     0.324451    0.324783    0.325507    0.325866    0.326048    0.330466
     0.382850    0.414059    0.509180    0.538766    0.549977    0.619785
     0.936996    0.956454    1.684505

 Minimum Search - Taking Simple RFO Step
 Searching for Lamda that Minimizes Along All modes
 Value Taken    Lamda =  -0.00668645
 Calculated Step too Large.  Step scaled by  0.325496
 Step Taken.  Stepsize is  0.300000

                             Maximum     Tolerance    Cnvgd?
         Gradient           0.003994      0.000300      NO
         Displacement       0.104309      0.001200      NO
         Energy change     -0.002223      0.000001      NO


 New Cartesian Coordinates Obtained by Inverse Iteration

 Displacement from previous Coordinates is:  1.124581
 ----------------------------------------------------------------
             Standard Nuclear Orientation (Angstroms)
    I     Atom           X                Y                Z
 ----------------------------------------------------------------
    1      C      -2.4031571718     0.2587465509    -0.7004593541
    2      H      -2.2394658976    -0.1309567380    -1.7063012351
    3      H      -2.8946213288     1.2309310304    -0.8393872219
    4      C      -1.0704668302     0.5498989713    -0.0243089352
    5      O      -0.7697148789     0.2114048100     1.0855769960
    6      S       0.0987557225     1.5290033494    -1.1164146604
    7      C       1.4516273190     0.2854891658    -1.2120339822
    8      H       1.0252953955    -0.7033081586    -1.3959029691
    9      H       2.0267099854     0.5609522028    -2.0976282029
   10      N       2.2770550362     0.2818456006    -0.0171273426
   11      H       2.0073664287     0.8727519272     0.7508220141
   12      C       3.3550725115    -0.5666872652     0.0530770986
   13      O       3.6493660589    -1.2958054517    -0.8829682119
   14      C       4.1194137522    -0.5034467692     1.3714264180
   15      H       4.5092390674     0.5019724979     1.5512982694
   16      H       4.9482412486    -1.2077858555     1.3234425138
   17      H       3.4715980469    -0.7646533646     2.2125177885
   18      C      -3.3273593138    -0.7316895293     0.0333779062
   19      O      -3.8576044481    -1.6466209552    -0.5310117842
   20      O      -3.5630935278    -0.4644973664     1.3416994815
   21      H      -2.8894156171     0.1631643889     1.6577821262
 ----------------------------------------------------------------
 Molecular Point Group                 C1    NOp =  1
 Largest Abelian Subgroup              C1    NOp =  1
 Nuclear Repulsion Energy =   780.2649471670 hartrees
 There are       50 alpha and       50 beta electrons
 Applying Cartesian multipole field
    Component          Value
    ---------          -----
     (2,0,0)        1.00000E-11
     (0,2,0)        2.00000E-11
     (0,0,2)       -3.00000E-11
 Nucleus-field energy     =     0.0000000226 hartrees
 Requested basis set is 6-31G(d)
 There are 67 shells and 202 basis functions
 A cutoff of  1.0D-11 yielded   1624 shell pairs
 There are     15294 function pairs
 Smallest overlap matrix eigenvalue = 3.41E-03
 Guess MOs from SCF MO coefficient file

 -----------------------------------------------------------------------
  General SCF calculation program by
  Eric Jon Sundstrom, Paul Horn, Yuezhi Mao, Dmitri Zuev, Alec White,
  David Stuck, Shaama M.S., Shane Yost, Joonho Lee, David Small,
  Daniel Levine, Susi Lehtola, Hugh Burton, Evgeny Epifanovsky
 -----------------------------------------------------------------------
 Exchange:     0.2000 Hartree-Fock + 0.0800 Slater + 0.7200 B88
 Correlation:  0.1900 VWN1RPA + 0.8100 LYP
 Using SG-1 standard quadrature grid
 using 8 threads for integral computing
 -------------------------------------------------------
 OpenMP Integral computing Module                
 Release: version 1.0, May 2013, Q-Chem Inc. Pittsburgh 
 -------------------------------------------------------
 -------------------------------------------------------
 OpenMP BLAS3 based DFT computing Module                
 Release: version 1.0, May 2013, Q-Chem Inc. Pittsburgh 
 -------------------------------------------------------
 A restricted SCF calculation will be
 performed using DIIS
 SCF converges when DIIS error is below 1.0e-08
 ---------------------------------------
  Cycle       Energy         DIIS error
 ---------------------------------------
    1    -987.8580842208      2.01e-03  
    2    -987.8976417755      3.41e-04  
    3    -987.8976481775      4.49e-04  
    4    -987.8983713580      1.15e-04  
    5    -987.8984133139      5.46e-05  
    6    -987.8984248138      7.92e-06  
    7    -987.8984251315      2.81e-06  
    8    -987.8984251651      1.34e-06  
    9    -987.8984251718      5.26e-07  
   10    -987.8984251730      1.52e-07  
   11    -987.8984251731      3.61e-08  
   12    -987.8984251732      1.75e-08  
   13    -987.8984251732      7.66e-09  Convergence criterion met
 ---------------------------------------
 SCF time:   CPU 73.52s  wall 9.00s 
 SCF   energy in the final basis set =     -987.8984251732
 Total energy in the final basis set =     -987.8984251732
 
 --------------------------------------------------------------
 
                    Orbital Energies (a.u.)
 --------------------------------------------------------------
 
 Alpha MOs
 -- Occupied --
-88.911 -19.211 -19.206 -19.153 -19.120 -14.371 -10.353 -10.341
-10.296 -10.277 -10.248 -10.197  -7.974  -5.939  -5.935  -5.928
 -1.121  -1.109  -1.040  -1.036  -0.935  -0.825  -0.792  -0.744
 -0.680  -0.629  -0.603  -0.588  -0.540  -0.521  -0.513  -0.503
 -0.489  -0.477  -0.460  -0.453  -0.441  -0.434  -0.418  -0.410
 -0.405  -0.391  -0.376  -0.364  -0.331  -0.309  -0.288  -0.279
 -0.265  -0.254
 -- Virtual --
 -0.078  -0.021   0.012   0.020   0.028   0.059   0.085   0.101
  0.112   0.132   0.135   0.146   0.152   0.166   0.179   0.181
  0.218   0.222   0.263   0.298   0.302   0.334   0.340   0.345
  0.375   0.413   0.415   0.476   0.491   0.494   0.530   0.534
  0.543   0.555   0.569   0.596   0.609   0.628   0.632   0.652
  0.659   0.661   0.685   0.718   0.746   0.752   0.767   0.797
  0.802   0.810   0.823   0.827   0.847   0.855   0.870   0.876
  0.888   0.891   0.896   0.900   0.912   0.920   0.927   0.946
  0.955   0.962   0.991   1.000   1.036   1.050   1.064   1.070
  1.086   1.118   1.133   1.185   1.196   1.308   1.337   1.362
  1.364   1.373   1.400   1.428   1.482   1.494   1.522   1.550
  1.574   1.610   1.641   1.673   1.702   1.736   1.740   1.755
  1.791   1.801   1.807   1.807   1.815   1.839   1.882   1.900
  1.914   1.938   1.949   1.985   2.005   2.014   2.024   2.040
  2.102   2.121   2.148   2.198   2.257   2.277   2.298   2.330
  2.349   2.381   2.408   2.439   2.462   2.520   2.539   2.554
  2.634   2.640   2.647   2.652   2.770   2.859   2.878   2.929
  2.965   2.982   3.051   3.122   3.817   3.861   3.906   3.951
  4.021   4.038   4.172   4.186   4.266   4.313   4.464   4.515
 --------------------------------------------------------------
 
          Ground-State Mulliken Net Atomic Charges

     Atom                 Charge (a.u.)
  ----------------------------------------
[...]
    7      C       1.5153996050    -0.8998927571    -1.2524779510
    8      H       1.0036391082    -1.8622147097    -1.2513104280
    9      H       2.2278851828    -0.8334784140    -2.0743725986
   10      N       2.1997976113    -0.6927506966    -0.0212560728
   11      H       1.6926541408    -0.9178696156     0.8242293518
   12      C       3.3481566696     0.0746404456     0.0423304498
   13      O       3.8823089430     0.5144685212    -0.9633491656
   14      C       3.8932527127     0.2804099610     1.4449629152
   15      H       3.1414954498     0.7352520954     2.1007859314
   16      H       4.7652907597     0.9327702361     1.3898988476
   17      H       4.1881529748    -0.6774603280     1.8890551728
   18      C      -3.4985411736     0.0739626622    -0.0018634608
   19      O      -4.5584668169     0.4107985328    -0.4646702016
   20      O      -3.3806380235    -0.9247388572     0.8849817139
   21      H      -2.4264360665    -1.0880551785     1.0655501524
 ----------------------------------------------------------------
 Molecular Point Group                 C1    NOp =  1
 Largest Abelian Subgroup              C1    NOp =  1
 Nuclear Repulsion Energy =   793.1909967298 hartrees
 There are       50 alpha and       50 beta electrons
 Applying Cartesian multipole field
    Component          Value
    ---------          -----
     (2,0,0)        1.00000E-11
     (0,2,0)        2.00000E-11
     (0,0,2)       -3.00000E-11
 Nucleus-field energy     =     0.0000000195 hartrees
 Requested basis set is 6-31G(d)
 There are 67 shells and 202 basis functions
 A cutoff of  1.0D-11 yielded   1660 shell pairs
 There are     15525 function pairs
 Smallest overlap matrix eigenvalue = 3.52E-03
 Guess MOs from SCF MO coefficient file

 -----------------------------------------------------------------------
  General SCF calculation program by
  Eric Jon Sundstrom, Paul Horn, Yuezhi Mao, Dmitri Zuev, Alec White,
  David Stuck, Shaama M.S., Shane Yost, Joonho Lee, David Small,
  Daniel Levine, Susi Lehtola, Hugh Burton, Evgeny Epifanovsky
 -----------------------------------------------------------------------
 Exchange:     0.2000 Hartree-Fock + 0.0800 Slater + 0.7200 B88
 Correlation:  0.1900 VWN1RPA + 0.8100 LYP
 Using SG-1 standard quadrature grid
 using 8 threads for integral computing
 -------------------------------------------------------
 OpenMP Integral computing Module                
 Release: version 1.0, May 2013, Q-Chem Inc. Pittsburgh 
 -------------------------------------------------------
 -------------------------------------------------------
 OpenMP BLAS3 based DFT computing Module                
 Release: version 1.0, May 2013, Q-Chem Inc. Pittsburgh 
 -------------------------------------------------------
 A restricted SCF calculation will be
 performed using DIIS
 SCF converges when DIIS error is below 1.0e-08
 ---------------------------------------
  Cycle       Energy         DIIS error
 ---------------------------------------
    1    -987.9269073108      2.85e-05  
    2    -987.9269147565      3.94e-06  
    3    -987.9269147344      5.70e-06  
    4    -987.9269148653      1.45e-06  
    5    -987.9269148740      3.62e-07  
    6    -987.9269148746      1.52e-07  
    7    -987.9269148746      6.73e-08  
    8    -987.9269148747      2.23e-08  
    9    -987.9269148747      6.86e-09  Convergence criterion met
 ---------------------------------------
 SCF time:   CPU 52.37s  wall 6.00s 
 SCF   energy in the final basis set =     -987.9269148747
 Total energy in the final basis set =     -987.9269148747
 
 --------------------------------------------------------------
 
                    Orbital Energies (a.u.)
 --------------------------------------------------------------
 
 Alpha MOs
 -- Occupied --
-88.920 -19.195 -19.192 -19.139 -19.132 -14.383 -10.342 -10.332
-10.308 -10.279 -10.239 -10.207  -7.983  -5.947  -5.943  -5.939
 -1.108  -1.089  -1.052  -1.022  -0.948  -0.828  -0.791  -0.756
 -0.693  -0.619  -0.611  -0.587  -0.529  -0.528  -0.510  -0.503
 -0.487  -0.472  -0.458  -0.445  -0.433  -0.432  -0.419  -0.412
 -0.408  -0.401  -0.381  -0.367  -0.318  -0.305  -0.294  -0.277
 -0.275  -0.267
 -- Virtual --
 -0.062  -0.018   0.004   0.019   0.054   0.075   0.092   0.111
  0.118   0.123   0.141   0.150   0.153   0.164   0.183   0.192
  0.209   0.233   0.249   0.290   0.323   0.336   0.342   0.353
  0.360   0.376   0.417   0.486   0.495   0.520   0.527   0.540
  0.552   0.562   0.569   0.586   0.594   0.620   0.638   0.640
  0.662   0.672   0.677   0.696   0.713   0.739   0.753   0.782
  0.793   0.804   0.814   0.841   0.845   0.853   0.867   0.869
  0.875   0.892   0.898   0.907   0.924   0.934   0.941   0.953
  0.967   0.997   1.007   1.021   1.036   1.068   1.080   1.095
  1.107   1.136   1.151   1.199   1.270   1.306   1.327   1.358
  1.380   1.394   1.410   1.431   1.489   1.507   1.511   1.527
  1.584   1.640   1.678   1.692   1.716   1.733   1.742   1.768
  1.789   1.794   1.801   1.816   1.827   1.837   1.862   1.894
  1.902   1.919   1.962   1.988   2.004   2.016   2.038   2.065
  2.083   2.127   2.182   2.223   2.246   2.264   2.286   2.333
  2.336   2.364   2.430   2.444   2.498   2.512   2.528   2.547
  2.620   2.646   2.648   2.674   2.781   2.858   2.870   2.933
  2.957   2.999   3.077   3.109   3.856   3.871   3.941   3.959
  4.018   4.060   4.174   4.185   4.260   4.306   4.455   4.500
 --------------------------------------------------------------
 
          Ground-State Mulliken Net Atomic Charges

     Atom                 Charge (a.u.)
  ----------------------------------------
      1 C                    -0.467093
      2 H                     0.212035
      3 H                     0.223744
      4 C                     0.269356
      5 O                    -0.483528
      6 S                     0.177283
      7 C                    -0.286321
      8 H                     0.207662
      9 H                     0.227667
     10 N                    -0.562372
     11 H                     0.347913
     12 C                     0.586331
     13 O                    -0.485716
     14 C                    -0.545152
     15 H                     0.168954
     16 H                     0.195194
     17 H                     0.180389
     18 C                     0.602528
     19 O                    -0.433440
     20 O                    -0.571495
     21 H                     0.436062
  ----------------------------------------
  Sum of atomic charges =     0.000000

 -----------------------------------------------------------------
                    Cartesian Multipole Moments
 -----------------------------------------------------------------
    Charge (ESU x 10^10)
                 0.0000
    Dipole Moment (Debye)
         X       3.3250      Y      -0.5436      Z       2.1076
       Tot       3.9741
    Quadrupole Moments (Debye-Ang)
        XX    -108.9610     XY      -6.9791     YY     -74.6103
        XZ       7.6397     YZ       3.9852     ZZ     -74.1385
    Octopole Moments (Debye-Ang^2)
       XXX      90.3105    XXY      -8.9507    XYY      -7.0251
       YYY       5.1737    XXZ      65.2933    XYZ       2.6495
       YYZ      22.2527    XZZ      -1.2007    YZZ      -2.3072
       ZZZ      68.3940
    Hexadecapole Moments (Debye-Ang^3)
      XXXX   -4369.5845   XXXY     -35.5911   XXYY    -635.6530
      XYYY      -7.0181   YYYY    -257.2359   XXXZ     102.9407
      XXYZ      53.6216   XYYZ      -0.8289   YYYZ      33.9789
      XXZZ    -683.2384   XYZZ     -13.8810   YYZZ    -128.8603
      XZZZ     -21.5843   YZZZ      32.4444   ZZZZ    -550.2225
 -----------------------------------------------------------------
 Calculating analytic gradient of the SCF energy
 Gradient of SCF Energy
            1           2           3           4           5           6
    1  -0.0000740   0.0000047   0.0000077   0.0000225   0.0000103   0.0000194
    2  -0.0000027  -0.0000020   0.0000020   0.0000159  -0.0000166  -0.0000427
    3   0.0000372  -0.0000007   0.0000018  -0.0000601   0.0000195   0.0000345
            7           8           9          10          11          12
    1  -0.0000803   0.0000059   0.0000127   0.0000525   0.0000004  -0.0000683
    2   0.0000100  -0.0000066   0.0000022   0.0000513   0.0000101  -0.0000076
    3  -0.0000344  -0.0000150  -0.0000171   0.0000044   0.0000200   0.0000462
           13          14          15          16          17          18
    1   0.0000286   0.0000003   0.0000003  -0.0000011   0.0000194   0.0000846
    2  -0.0000187   0.0000190  -0.0000188   0.0000108   0.0000010  -0.0000425
    3  -0.0000204  -0.0000051   0.0000078   0.0000074  -0.0000055  -0.0000188
           19          20          21
    1  -0.0000355   0.0000079  -0.0000179
    2   0.0000144   0.0000242  -0.0000024
    3   0.0000041  -0.0000044  -0.0000013
 Max gradient component =       8.458E-05
 RMS gradient           =       2.859E-05
 Gradient time:  CPU 27.40 s  wall 3.46 s
 Geometry Optimization Parameters
   NAtoms,    NIC,     NZ,  NCons,   NDum,   NFix, NCnnct, MaxDiis
       21     129       0       0       0       0       0       0

 Cartesian Hessian Update
 Hessian Updated using BFGS Update


** GEOMETRY OPTIMIZATION IN DELOCALIZED INTERNAL COORDINATES **
   Searching for a Minimum

   Optimization Cycle:  32

                       Coordinates (Angstroms)
     ATOM                X               Y               Z
      1  C        -2.2003315967    0.8361255828   -0.3481847812
      2  H        -2.3606165591    1.3702776002   -1.2858756749
      3  H        -2.0609089640    1.5913131604    0.4396000563
      4  C        -0.9366924556   -0.0040404534   -0.3723130010
      5  O        -0.7210864246   -0.8720350431    0.4724689065
      6  S         0.2105264815    0.3832262967   -1.6607134495
      7  C         1.5153996050   -0.8998927571   -1.2524779510
      8  H         1.0036391082   -1.8622147097   -1.2513104280
      9  H         2.2278851828   -0.8334784140   -2.0743725986
     10  N         2.1997976113   -0.6927506966   -0.0212560728
     11  H         1.6926541408   -0.9178696156    0.8242293518
     12  C         3.3481566696    0.0746404456    0.0423304498
     13  O         3.8823089430    0.5144685212   -0.9633491656
     14  C         3.8932527127    0.2804099610    1.4449629152
     15  H         3.1414954498    0.7352520954    2.1007859314
     16  H         4.7652907597    0.9327702361    1.3898988476
     17  H         4.1881529748   -0.6774603280    1.8890551728
     18  C        -3.4985411736    0.0739626622   -0.0018634608
     19  O        -4.5584668169    0.4107985328   -0.4646702016
     20  O        -3.3806380235   -0.9247388572    0.8849817139
     21  H        -2.4264360665   -1.0880551785    1.0655501524
   Point Group: c1    Number of degrees of freedom:    57


   Energy is   -987.926914875

 Hessian Updated using BFGS Update

 57 Hessian modes will be used to form the next step
  Hessian Eigenvalues:
     0.003287    0.004693    0.005982    0.007783    0.009095    0.012130
     0.021135    0.023388    0.027719    0.037468    0.042278    0.050428
     0.057238    0.064301    0.069087    0.073493    0.074810    0.075895
     0.097641    0.111722    0.138886    0.147116    0.159718    0.160557
     0.162925    0.164383    0.184187    0.195392    0.203393    0.224184
     0.233724    0.240581    0.250366    0.256554    0.260397    0.262923
     0.280952    0.303775    0.312633    0.324407    0.324767    0.325064
     0.326077    0.326175    0.326319    0.327601    0.337816    0.360231
     0.404747    0.437246    0.513735    0.533142    0.550562    0.559006
     0.899232    0.928237    0.959343

 Minimum Search - Taking Simple RFO Step
 Searching for Lamda that Minimizes Along All modes
 Value Taken    Lamda =   0.00000000
 Step Taken.  Stepsize is  0.007701

                             Maximum     Tolerance    Cnvgd?
         Gradient           0.000047      0.000300     YES
         Displacement       0.004332      0.001200      NO
         Energy change     -0.000001      0.000001     YES

 Final energy is   -987.926914874661     


 ******************************
 **  OPTIMIZATION CONVERGED  **
 ******************************

                       Coordinates (Angstroms)
     ATOM                X               Y               Z
      1  C        -2.2003315967    0.8361255828   -0.3481847812
      2  H        -2.3606165591    1.3702776002   -1.2858756749
      3  H        -2.0609089640    1.5913131604    0.4396000563
      4  C        -0.9366924556   -0.0040404534   -0.3723130010
      5  O        -0.7210864246   -0.8720350431    0.4724689065
      6  S         0.2105264815    0.3832262967   -1.6607134495
      7  C         1.5153996050   -0.8998927571   -1.2524779510
      8  H         1.0036391082   -1.8622147097   -1.2513104280
      9  H         2.2278851828   -0.8334784140   -2.0743725986
     10  N         2.1997976113   -0.6927506966   -0.0212560728
     11  H         1.6926541408   -0.9178696156    0.8242293518
     12  C         3.3481566696    0.0746404456    0.0423304498
     13  O         3.8823089430    0.5144685212   -0.9633491656
     14  C         3.8932527127    0.2804099610    1.4449629152
     15  H         3.1414954498    0.7352520954    2.1007859314
     16  H         4.7652907597    0.9327702361    1.3898988476
     17  H         4.1881529748   -0.6774603280    1.8890551728
     18  C        -3.4985411736    0.0739626622   -0.0018634608
     19  O        -4.5584668169    0.4107985328   -0.4646702016
     20  O        -3.3806380235   -0.9247388572    0.8849817139
     21  H        -2.4264360665   -1.0880551785    1.0655501524

Z-matrix Print:
$molecule
0 1
S 
C  1 1.768067
O  2 1.230267 1 122.765362
C  2 1.517645 1 115.504723 3 178.309225 0
H  4 1.090997 2 112.315380 1 16.221462 0
H  4 1.100160 2 106.611130 1 -101.074062 0
C  4 1.544726 2 115.478733 1 140.813263 0
O  7 1.204612 4 121.022314 2 -148.498856 0
O  7 1.340821 4 116.224555 2 34.781543 0
H  9 0.984773 7 109.269255 4 -8.633976 0
C  1 1.875032 2 98.221897 3 2.144111 0
H  11 1.089751 1 104.423355 2 173.080420 0
H  11 1.089937 1 106.121267 2 55.500312 0
N  11 1.423803 1 115.038819 2 -67.240268 0
H  14 1.011296 11 116.713029 1 75.335629 0
C  14 1.382628 11 121.315748 1 -89.128636 0
O  16 1.220721 14 121.703134 11 -6.043041 0
C  16 1.518831 14 114.566373 11 175.626661 0
H  18 1.090439 16 108.749274 14 -177.357651 0
H  18 1.096221 16 110.627186 14 62.777151 0
H  18 1.096414 16 111.254977 14 -56.936253 0
$end

 
 --------------------------------------------------------------
 
                    Orbital Energies (a.u.)
 --------------------------------------------------------------
 
 Alpha MOs
 -- Occupied --
-88.920 -19.195 -19.192 -19.139 -19.132 -14.383 -10.342 -10.332
-10.308 -10.279 -10.239 -10.207  -7.983  -5.947  -5.943  -5.939
 -1.108  -1.089  -1.052  -1.022  -0.948  -0.828  -0.791  -0.756
 -0.693  -0.619  -0.611  -0.587  -0.529  -0.528  -0.510  -0.503
 -0.487  -0.472  -0.458  -0.445  -0.433  -0.432  -0.419  -0.412
 -0.408  -0.401  -0.381  -0.367  -0.318  -0.305  -0.294  -0.277
 -0.275  -0.267
 -- Virtual --
 -0.062  -0.018   0.004   0.019   0.054   0.075   0.092   0.111
  0.118   0.123   0.141   0.150   0.153   0.164   0.183   0.192
  0.209   0.233   0.249   0.290   0.323   0.336   0.342   0.353
  0.360   0.376   0.417   0.486   0.495   0.520   0.527   0.540
  0.552   0.562   0.569   0.586   0.594   0.620   0.638   0.640
  0.662   0.672   0.677   0.696   0.713   0.739   0.753   0.782
  0.793   0.804   0.814   0.841   0.845   0.853   0.867   0.869
  0.875   0.892   0.898   0.907   0.924   0.934   0.941   0.953
  0.967   0.997   1.007   1.021   1.036   1.068   1.080   1.095
  1.107   1.136   1.151   1.199   1.270   1.306   1.327   1.358
  1.380   1.394   1.410   1.431   1.489   1.507   1.511   1.527
  1.584   1.640   1.678   1.692   1.716   1.733   1.742   1.768
  1.789   1.794   1.801   1.816   1.827   1.837   1.862   1.894
  1.902   1.919   1.962   1.988   2.004   2.016   2.038   2.065
  2.083   2.127   2.182   2.223   2.246   2.264   2.286   2.333
  2.336   2.364   2.430   2.444   2.498   2.512   2.528   2.547
  2.620   2.646   2.648   2.674   2.781   2.858   2.870   2.933
  2.957   2.999   3.077   3.109   3.856   3.871   3.941   3.959
  4.018   4.060   4.174   4.185   4.260   4.306   4.455   4.500
 --------------------------------------------------------------
 
          Ground-State Mulliken Net Atomic Charges

     Atom                 Charge (a.u.)
  ----------------------------------------
      1 C                    -0.467093
      2 H                     0.212035
      3 H                     0.223744
      4 C                     0.269356
      5 O                    -0.483528
      6 S                     0.177283
      7 C                    -0.286321
      8 H                     0.207662
      9 H                     0.227667
     10 N                    -0.562372
     11 H                     0.347913
     12 C                     0.586331
     13 O                    -0.485716
     14 C                    -0.545152
     15 H                     0.168954
     16 H                     0.195194
     17 H                     0.180389
     18 C                     0.602528
     19 O                    -0.433440
     20 O                    -0.571495
     21 H                     0.436062
  ----------------------------------------
  Sum of atomic charges =     0.000000

 -----------------------------------------------------------------
                    Cartesian Multipole Moments
 -----------------------------------------------------------------
    Charge (ESU x 10^10)
                 0.0000
    Dipole Moment (Debye)
         X       3.3250      Y      -0.5436      Z       2.1076
       Tot       3.9741
    Quadrupole Moments (Debye-Ang)
        XX    -108.9610     XY      -6.9791     YY     -74.6103
        XZ       7.6397     YZ       3.9852     ZZ     -74.1385
    Octopole Moments (Debye-Ang^2)
       XXX      90.3105    XXY      -8.9507    XYY      -7.0251
       YYY       5.1737    XXZ      65.2933    XYZ       2.6495
       YYZ      22.2527    XZZ      -1.2007    YZZ      -2.3072
       ZZZ      68.3940
    Hexadecapole Moments (Debye-Ang^3)
      XXXX   -4369.5845   XXXY     -35.5911   XXYY    -635.6530
      XYYY      -7.0181   YYYY    -257.2359   XXXZ     102.9407
      XXYZ      53.6216   XYYZ      -0.8289   YYYZ      33.9789
      XXZZ    -683.2384   XYZZ     -13.8810   YYZZ    -128.8603
      XZZZ     -21.5843   YZZZ      32.4444   ZZZZ    -550.2225
 -----------------------------------------------------------------
Archival summary:
1\1\cub-0-28.local\OPT\ProcedureUnspecified\6-31G*\14169\c295_kri\WedOct3117:11:422018WedOct3117:11:422018\0\\#,OPT,ProcedureUnspecified,6-31G*,\\0,1\S\C,1,1.76807\O,2,1.23027,1,122.765\C,2,1.51764,1,115.505,3,178.309,0\H,4,1.091,2,112.315,1,16.2215,0\H,4,1.10016,2,106.611,1,-101.074,0\C,4,1.54473,2,115.479,1,140.813,0\O,7,1.20461,4,121.022,2,-148.499,0\O,7,1.34082,4,116.225,2,34.7815,0\H,9,0.984773,7,109.269,4,-8.63398,0\C,1,1.87503,2,98.2219,3,2.14411,0\H,11,1.08975,1,104.423,2,173.08,0\H,11,1.08994,1,106.121,2,55.5003,0\N,11,1.4238,1,115.039,2,-67.2403,0\H,14,1.0113,11,116.713,1,75.3356,0\C,14,1.38263,11,121.316,1,-89.1286,0\O,16,1.22072,14,121.703,11,-6.04304,0\C,16,1.51883,14,114.566,11,175.627,0\H,18,1.09044,16,108.749,14,-177.358,0\H,18,1.09622,16,110.627,14,62.7772,0\H,18,1.09641,16,111.255,14,-56.9363,0\\\@

 Total job time:  396.01s(wall), 3146.80s(cpu) 
 Wed Oct 31 17:11:42 2018

        *************************************************************
        *                                                           *
        *  Thank you very much for using Q-Chem.  Have a nice day.  *
        *                                                           *
        *************************************************************


