
Running Job 1 of 1 malonylSNAC_opt.in
qchem malonylSNAC_opt.in_10163.0 /scr/c295_krishna/137208/qchem10163/ 1
/usr/software/qchem_511/exe/qcprog.exe_s malonylSNAC_opt.in_10163.0 /scr/c295_krishna/137208/qchem10163/
Check license passed

                  Welcome to Q-Chem
     A Quantum Leap Into The Future Of Chemistry


 Q-Chem 5.1, Q-Chem, Inc., Pleasanton, CA (2018)

 Yihan Shao,  Zhengting Gan,  E. Epifanovsky,  A. T. B. Gilbert,  M. Wormit,  
 J. Kussmann,  A. W. Lange,  A. Behn,  Jia Deng,  Xintian Feng,  D. Ghosh,  
 M. Goldey,  P. R. Horn,  L. D. Jacobson,  I. Kaliman,  T. Kus,  A. Landau,  
 Jie Liu,  E. I. Proynov,  R. M. Richard,  R. P. Steele,  E. J. Sundstrom,  
 H. L. Woodcock III,  P. M. Zimmerman,  D. Zuev,  B. Albrecht,  E. Alguire,  
 S. A. Baeppler,  D. Barton,  Z. Benda,  Y. A. Bernard,  E. J. Berquist,  
 K. B. Bravaya,  H. Burton,  D. Casanova,  Chun-Min Chang,  Yunqing Chen,  
 A. Chien,  K. D. Closser,  M. P. Coons,  S. Coriani,  S. Dasgupta,  
 A. L. Dempwolff,  M. Diedenhofen,  Hainam Do,  R. G. Edgar,  Po-Tung Fang,  
 S. Faraji,  S. Fatehi,  Qingguo Feng,  K. D. Fenk,  J. Fosso-Tande,  
 Qinghui Ge,  A. Ghysels,  G. Gidofalvi,  J. Gomes,  J. Gonthier,  A. Gunina,  
 D. Hait,  M. W. D. Hanson-Heine,  P. H. P. Harbach,  A. W. Hauser,  
 J. E. Herr,  E. G. Hohenstein,  Z. C. Holden,  Kerwin Hui,  B. C. Huynh,  
 T.-C. Jagau,  Hyunjun Ji,  B. Kaduk,  K. Khistyaev,  Jaehoon Kim,  
 P. Klunzinger,  K. Koh,  D. Kosenkov,  L. Koulias,  T. Kowalczyk,  
 C. M. Krauter,  A. Kunitsa,  Ka Un Lao,  A. Laurent,  K. V. Lawler,  
 Joonho Lee,  D. Lefrancois,  S. Lehtola,  D. S. Levine,  Yi-Pei Li,  
 You-Sheng Lin,  Fenglai Liu,  E. Livshits,  A. Luenser,  P. Manohar,  
 E. Mansoor,  S. F. Manzer,  Shan-Ping Mao,  Yuezhi Mao,  N. Mardirossian,  
 A. V. Marenich,  T. Markovich,  L. A. Martinez-Martinez,  S. A. Maurer,  
 N. J. Mayhall,  S. C. McKenzie,  J.-M. Mewes,  A. F. Morrison,  
 J. W. Mullinax,  K. Nanda,  T. S. Nguyen-Beck,  R. Olivares-Amaya,  
 J. A. Parkhill,  T. M. Perrine,  F. Plasser,  P. Pokhilko,  S. Prager,  
 A. Prociuk,  E. Ramos,  D. R. Rehn,  F. Rob,  M. Schneider,  N. Sergueev,  
 S. M. Sharada,  S. Sharma,  D. W. Small,  T. Stauch,  T. Stein,  
 Yu-Chuan Su,  A. J. W. Thom,  A. Tkatchenko,  T. Tsuchimochi,  N. M. Tubman,  
 L. Vogt,  M. L. Vidal,  O. Vydrov,  M. A. Watson,  J. Wenzel,  
 M. de Wergifosse,  T. A. Wesolowski,  A. White,  J. Witte,  A. Yamada,  
 Jun Yang,  K. Yao,  S. Yeganeh,  S. R. Yost,  Zhi-Qiang You,  A. Zech,  
 Igor Ying Zhang,  Xing Zhang,  Yan Zhao,  Ying Zhu,  B. R. Brooks,  
 G. K. L. Chan,  C. J. Cramer,  M. S. Gordon,  W. J. Hehre,  A. Klamt,  
 M. W. Schmidt,  C. D. Sherrill,  D. G. Truhlar,  A. Aspuru-Guzik,  R. Baer,  
 A. T. Bell,  N. A. Besley,  Jeng-Da Chai,  A. E. DePrince, III,  
 R. A. DiStasio Jr.,  A. Dreuw,  B. D. Dunietz,  T. R. Furlani,  
 Chao-Ping Hsu,  Yousung Jung,  Jing Kong,  D. S. Lambrecht,  WanZhen Liang,  
 C. Ochsenfeld,  V. A. Rassolov,  L. V. Slipchenko,  J. E. Subotnik,  
 T. Van Voorhis,  J. M. Herbert,  A. I. Krylov,  P. M. W. Gill,  M. Head-Gordon

 Contributors to earlier versions of Q-Chem not listed above: 
 R. D. Adamson,  B. Austin,  J. Baker,  G. J. O. Beran,  K. Brandhorst,  
 S. T. Brown,  E. F. C. Byrd,  A. K. Chakraborty,  C.-L. Cheng,  
 Siu Hung Chien,  D. M. Chipman,  D. L. Crittenden,  H. Dachsel,  
 R. J. Doerksen,  A. D. Dutoi,  L. Fusti-Molnar,  W. A. Goddard III,  
 A. Golubeva-Zadorozhnaya,  S. R. Gwaltney,  G. Hawkins,  A. Heyden,  
 S. Hirata,  G. Kedziora,  F. J. Keil,  C. Kelley,  Jihan Kim,  R. A. King,  
 R. Z. Khaliullin,  P. P. Korambath,  W. Kurlancheek,  A. M. Lee,  M. S. Lee,  
 S. V. Levchenko,  Ching Yeh Lin,  D. Liotard,  R. C. Lochan,  I. Lotan,  
 P. E. Maslen,  N. Nair,  D. P. O'Neill,  D. Neuhauser,  E. Neuscamman,  
 C. M. Oana,  R. Olson,  B. Peters,  R. Peverati,  P. A. Pieniazek,  
 Y. M. Rhee,  J. Ritchie,  M. A. Rohrdanz,  E. Rosta,  N. J. Russ,  
 H. F. Schaefer III,  N. E. Schultz,  N. Shenvi,  A. C. Simmonett,  A. Sodt,  
 D. Stuck,  K. S. Thanthiriwatte,  V. Vanovschi,  Tao Wang,  A. Warshel,  
 C. F. Williams,  Q. Wu,  X. Xu,  W. Zhang

 Please cite Q-Chem as follows:
 Y. Shao et al., Mol. Phys. 113, 184-215 (2015)
 DOI: 10.1080/00268976.2014.952696

 Q-Chem 5.1.1 for Intel X86 EM64T Linux

 Parts of Q-Chem use Armadillo 8.300.2 (Tropical Shenanigans).
 http://arma.sourceforge.net/

 Q-Chem begins on Thu Nov  1 01:51:36 2018  

Host: cub-0-22.local
0

     Scratch files written to /scr/c295_krishna/137208/qchem10163//
 Aug318 |scratch|qcdevops|jenkins|workspace|build_RNUM -1
Processing $rem in /usr/software/qchem_511/config/preferences.
 MEM_TOTAL  2000 
Input Ideriv = 2
Curr. Ideriv = -1
Max.  Ideriv = 2
Input Ideriv = 1
Curr. Ideriv = 2
Max.  Ideriv = 1

Checking the input file for inconsistencies... 	...done.

--------------------------------------------------------------
User input:
--------------------------------------------------------------
$comment
malonyl-SNAC geom opt with no constraints.
$end

$molecule
0  1
C          2.23059        2.37870        1.69792
H          2.59004        2.00037        2.67921
H          2.64994        3.39449        1.53967
C          0.72724        2.47014        1.75197
O          0.01965        1.84755        0.97416
S         -0.04166        3.52267        2.98721
C         -0.16025        2.22930        4.27735
H          0.50981        1.37256        4.04818
H          0.19343        2.66856        5.23404
N         -1.52578        1.76321        4.41263
H         -2.25635        2.15627        3.79935
C         -1.87521        0.82371        5.33149
O         -1.03468        0.33679        6.07491
C         -3.30227        0.37760        5.44284
H         -3.94576        1.24740        5.69152
H         -3.41439       -0.38871        6.23966
H         -3.63372       -0.05879        4.47757
C          2.72820        1.47893        0.59598
O          3.38659        0.48840        0.87069
O          2.47079        1.76416       -0.69843
H          1.96808        2.55023       -0.95414

$end

$rem
JOBTYPE           opt
EXCHANGE        B97M-V
BASIS             6-31G*
$end
--------------------------------------------------------------
 ----------------------------------------------------------------
             Standard Nuclear Orientation (Angstroms)
    I     Atom           X                Y                Z
 ----------------------------------------------------------------
    1      C      -2.2405039455     0.1182857040    -0.7646641629
    2      H      -1.7208912267    -0.4689614989    -1.5523260832
    3      H      -2.7556620155     0.9742866745    -1.2490207574
    4      C      -1.2008589510     0.6462779290     0.1901690133
    5      O      -1.2218371398     0.3647428962     1.3791131891
    6      S       0.0974884603     1.7179844007    -0.4347979511
    7      C       1.2701765548     0.3688521590    -0.8297354043
    8      H       0.7512480002    -0.6132159536    -0.8716650773
    9      H       1.6810924323     0.5601453919    -1.8435646240
   10      N       2.3410609188     0.3180133070     0.1453721988
   11      H       2.3383305608     0.9840702716     0.9332184477
   12      C       3.3565297105    -0.5812265292     0.0491634440
   13      O       3.3913487483    -1.3850780691    -0.8721754731
   14      C       4.4489720338    -0.5918371447     1.0759888349
   15      H       4.9627919678     0.3922434499     1.0828896554
   16      H       5.1956269128    -1.3827400192     0.8486055517
   17      H       4.0165053308    -0.7859743336     2.0796445578
   18      C      -3.2766694897    -0.7445514756    -0.0913540597
   19      O      -3.4038459331    -1.9124243609    -0.4230040758
   20      O      -4.0830604669    -0.2368916243     0.8652693648
   21      H      -4.0230009040     0.6887078667     1.1403501241
 ----------------------------------------------------------------
 Molecular Point Group                 C1    NOp =  1
 Largest Abelian Subgroup              C1    NOp =  1
 Nuclear Repulsion Energy =   780.7870446289 hartrees
 There are       50 alpha and       50 beta electrons
 Requested basis set is 6-31G(d)
 There are 67 shells and 202 basis functions

 Total QAlloc Memory Limit   2000 MB
 Mega-Array Size       188 MB
 MEM_STATIC part       192 MB
 A cutoff of  1.0D-11 yielded   1615 shell pairs
 There are     15269 function pairs
 
 -------------------------------------------------------
 OpenMP Integral Computing Module                       
 Release: version 1.0, May 2013, Q-Chem Inc. Pittsburgh 
 -------------------------------------------------------
 Integral Job Info:
 Integral job number is                      11
 Integral operator is                         1
 short-range coefficients                     0
 long-range coefficients              100000000
 Omega coefficients                           0
 if combine SR and LR in K                    0
 Integral screening is                        0
 Integral computing path is                   2
 max size of driver memory is            800000
 size of driver memory is                593474
 size of scratch memory is             15267112
 max col of scratch BK array               1296
 max len of scratch array in speh3          155
 max len of scratch index in speh4           18
 max int batch size is                      520
 min int batch size is                       52
 fixed nKL is                                52
 max L of basis functions is                  2
 order of int derivative is                   0
 number of shells is                         67
 number of basis is                         202
 number of cartesian basis is               202
 number of contracted shell pairs          1615
 number of primitive shell pairs           6228
 maxK2 (contraction) of shell pair           36
 max number of K2 of shell pair               1
 max number of CS2 of shell pair            178
 max number of PS2 of shell pair           1020
 mem total for path MDJ                  547164
 -------------------------------------------------------
 Smallest overlap matrix eigenvalue = 3.15E-03

 Scale SEOQF with 1.000000e-01/1.000000e-01/1.000000e-01

 Standard Electronic Orientation quadrupole field applied
 Nucleus-field energy     =     0.0000000287 hartrees
 Guess from superposition of atomic densities
 Warning:  Energy on first SCF cycle will be non-variational
 SAD guess density has 100.000000 electrons

 -----------------------------------------------------------------------
  General SCF calculation program by
  Eric Jon Sundstrom, Paul Horn, Yuezhi Mao, Dmitri Zuev, Alec White,
  David Stuck, Shaama M.S., Shane Yost, Joonho Lee, David Small,
  Daniel Levine, Susi Lehtola, Hugh Burton, Evgeny Epifanovsky
 -----------------------------------------------------------------------
 Exchange:  B97M-V      Correlation:  B97M-V
 Using SG-2 standard quadrature grid
 Nonlocal Correlation:  VV10 with C = 0.0100 and b = 6.00 and scale = 1.00000
 Grid used for NLC:  SG-1 standard quadrature
 using 8 threads for integral computing
 -------------------------------------------------------
 OpenMP Integral computing Module                
 Release: version 1.0, May 2013, Q-Chem Inc. Pittsburgh 
 -------------------------------------------------------
 -------------------------------------------------------
 OpenMP BLAS3 based DFT computing Module                
 Release: version 1.0, May 2013, Q-Chem Inc. Pittsburgh 
 -------------------------------------------------------
 -------------------------------------------------------
 OpenMP BLAS3 based DFT computing Module                
 Release: version 1.0, May 2013, Q-Chem Inc. Pittsburgh 
 -------------------------------------------------------
 -------------------------------------------------------
 OpenMP BLAS3 based DFT computing Module                
 Release: version 1.0, May 2013, Q-Chem Inc. Pittsburgh 
 -------------------------------------------------------
 Nonlocal correlation = 0.383042743551
 A restricted SCF calculation will be
 performed using DIIS
 SCF converges when DIIS error is below 1.0e-08
 ---------------------------------------
  Cycle       Energy         DIIS error
 ---------------------------------------
 Nonlocal correlation = 3.948524624136e-01
    1    -989.6045226708      5.43e-02  
 Nonlocal correlation = 3.855545559412e-01
    2    -987.3488076975      8.38e-03  
 Nonlocal correlation = 3.900515495010e-01
    3    -984.3321068047      2.21e-02  
 Nonlocal correlation = 3.911308955922e-01
    4    -987.3791560370      7.29e-03  
 Nonlocal correlation = 3.911805444089e-01
    5    -987.6247975720      1.86e-03  
 Nonlocal correlation = 3.911871318059e-01
    6    -987.6269996977      2.03e-03  
 Nonlocal correlation = 3.911517963356e-01
    7    -987.6443601324      4.97e-04  
 Nonlocal correlation = 3.911458731459e-01
    8    -987.6453068316      1.76e-04  
 Nonlocal correlation = 3.911463061401e-01
    9    -987.6454081885      8.81e-05  
 Nonlocal correlation = 3.911491990052e-01
   10    -987.6454419751      2.86e-05  
 Nonlocal correlation = 3.911486971470e-01
   11    -987.6454450399      9.28e-06  
 Nonlocal correlation = 3.911484421582e-01
   12    -987.6454454201      2.90e-06  
 Nonlocal correlation = 3.911484803433e-01
   13    -987.6454454617      5.41e-07  
 Nonlocal correlation = 3.911484805068e-01
   14    -987.6454454634      1.12e-07  
 Nonlocal correlation = 3.911484819773e-01
   15    -987.6454454635      4.87e-08  
 Nonlocal correlation = 3.911484829391e-01
   16    -987.6454454635      1.30e-08  
   17    -987.6454454635      3.50e-09  Convergence criterion met
 ---------------------------------------
 SCF time:   CPU 999.23s  wall 125.00s 
 SCF   energy in the final basis set =     -987.6454454635
 Total energy in the final basis set =     -987.6454454635
 
 --------------------------------------------------------------
 
                    Orbital Energies (a.u.)
 --------------------------------------------------------------
 
 Alpha MOs
 -- Occupied --
-88.992 -19.221 -19.203 -19.155 -19.123 -14.383 -10.336 -10.334
-10.286 -10.281 -10.242 -10.196  -8.001  -5.873  -5.869  -5.862
 -1.098  -1.075  -1.026  -1.013  -0.922  -0.807  -0.771  -0.724
 -0.661  -0.623  -0.572  -0.558  -0.501  -0.494  -0.480  -0.465
 -0.449  -0.449  -0.425  -0.417  -0.404  -0.396  -0.382  -0.377
 -0.365  -0.352  -0.346  -0.330  -0.296  -0.275  -0.250  -0.245
 -0.237  -0.217
 -- Virtual --
 -0.101  -0.039  -0.008   0.002   0.023   0.033   0.057   0.070
  0.095   0.107   0.112   0.123   0.134   0.149   0.159   0.171
  0.212   0.219   0.242   0.284   0.304   0.324   0.338   0.353
  0.381   0.417   0.430   0.481   0.497   0.517   0.533   0.545
  0.548   0.560   0.582   0.612   0.617   0.622   0.631   0.648
  0.659   0.683   0.706   0.731   0.749   0.781   0.784   0.796
  0.803   0.806   0.820   0.833   0.841   0.861   0.871   0.878
  0.881   0.896   0.904   0.914   0.922   0.931   0.942   0.955
  0.958   0.974   0.998   1.045   1.058   1.069   1.103   1.104
  1.122   1.135   1.167   1.224   1.276   1.331   1.341   1.347
  1.393   1.413   1.423   1.439   1.480   1.509   1.547   1.572
  1.614   1.650   1.675   1.712   1.737   1.752   1.768   1.795
  1.811   1.821   1.837   1.838   1.866   1.906   1.918   1.927
  1.941   1.954   1.964   2.006   2.015   2.038   2.065   2.076
  2.093   2.120   2.143   2.189   2.248   2.263   2.288   2.370
  2.384   2.413   2.469   2.487   2.495   2.573   2.591   2.608
  2.675   2.696   2.704   2.731   2.868   2.914   2.929   3.006
  3.046   3.051   3.149   3.213   3.959   4.004   4.064   4.066
  4.153   4.191   4.293   4.310   4.427   4.437   4.602   4.691
 --------------------------------------------------------------
 
          Ground-State Mulliken Net Atomic Charges

     Atom                 Charge (a.u.)
  ----------------------------------------
      1 C                    -0.499032
      2 H                     0.235316
      3 H                     0.211265
      4 C                     0.244965
      5 O                    -0.366854
      6 S                     0.118239
      7 C                    -0.284003
      8 H                     0.206665
      9 H                     0.216782
     10 N                    -0.616034
     11 H                     0.357607
     12 C                     0.626035
     13 O                    -0.508442
     14 C                    -0.579814
     15 H                     0.173263
     16 H                     0.205459
     17 H                     0.178143
     18 C                     0.671051
     19 O                    -0.440681
     20 O                    -0.577676
     21 H                     0.427747
  ----------------------------------------
  Sum of atomic charges =    -0.000000

 -----------------------------------------------------------------
                    Cartesian Multipole Moments
 -----------------------------------------------------------------
    Charge (ESU x 10^10)
                -0.0000
    Dipole Moment (Debye)
         X       0.5038      Y       5.3569      Z       0.6203
       Tot       5.4162
    Quadrupole Moments (Debye-Ang)
        XX     -77.6742     XY      -8.5781     YY     -84.5469
        XZ       9.0852     YZ      -1.6994     ZZ     -76.9893
    Octopole Moments (Debye-Ang^2)
       XXX      16.6087    XXY      79.4205    XYY      -0.3303
       YYY       6.4900    XXZ      35.0889    XYZ     -13.2341
       YYZ      12.5056    XZZ      -6.2501    YZZ       0.5638
       ZZZ       2.2467
    Hexadecapole Moments (Debye-Ang^3)
      XXXX   -3523.6663   XXXY    -164.2685   XXYY    -745.8502
      XYYY     -25.3283   YYYY    -605.6425   XXXZ      75.5226
      XXYZ     -18.2487   XYYZ      -5.3142   YYYZ       1.5975
      XXZZ    -638.2740   XYZZ       2.8436   YYZZ    -157.6765
      XZZZ     -19.2922   YZZZ       9.1582   ZZZZ    -344.6196
 -----------------------------------------------------------------
 Calculating analytic gradient of the SCF energy
 Gradient of SCF Energy
            1           2           3           4           5           6
    1  -0.0004510   0.0098825  -0.0085522   0.0093795   0.0023617  -0.0090004
    2  -0.0125626  -0.0064830   0.0049271   0.0114347  -0.0052873  -0.0001474
    3   0.0053422  -0.0064165   0.0001742  -0.0434465   0.0257465   0.0133643
            7           8           9          10          11          12
    1  -0.0083879  -0.0037165   0.0041516  -0.0037510   0.0048765  -0.0049633
    2   0.0070220  -0.0107624   0.0021714  -0.0197460   0.0116346   0.0201246
    3   0.0086815   0.0000470  -0.0112439  -0.0266948   0.0161556   0.0188568
           13          14          15          16          17          18
    1   0.0071290  -0.0037998   0.0038747   0.0140128  -0.0076263   0.0012494
    2  -0.0006063  -0.0089108   0.0094296  -0.0109575  -0.0045542   0.0315060
    3   0.0059110  -0.0141445  -0.0048549   0.0001337   0.0070999   0.0056839
           19          20          21
    1   0.0005988   0.0075258  -0.0147968
    2  -0.0293453   0.0106499   0.0004616
    3  -0.0115331   0.0004733   0.0106645
 Max gradient component =       4.345E-02
 RMS gradient           =       1.247E-02
 Gradient time:  CPU 172.76 s  wall 38.53 s
 Geometry Optimization Parameters
   NAtoms,    NIC,     NZ,  NCons,   NDum,   NFix, NCnnct, MaxDiis
       21     129       0       0       0       0       0       0


** GEOMETRY OPTIMIZATION IN DELOCALIZED INTERNAL COORDINATES **
   Searching for a Minimum

   Optimization Cycle:   1

                       Coordinates (Angstroms)
     ATOM                X               Y               Z
      1  C        -2.2405039455    0.1182857040   -0.7646641629
      2  H        -1.7208912267   -0.4689614989   -1.5523260832
      3  H        -2.7556620155    0.9742866745   -1.2490207574
      4  C        -1.2008589510    0.6462779290    0.1901690133
      5  O        -1.2218371398    0.3647428962    1.3791131891
      6  S         0.0974884603    1.7179844007   -0.4347979511
      7  C         1.2701765548    0.3688521590   -0.8297354043
      8  H         0.7512480002   -0.6132159536   -0.8716650773
      9  H         1.6810924323    0.5601453919   -1.8435646240
     10  N         2.3410609188    0.3180133070    0.1453721988
     11  H         2.3383305608    0.9840702716    0.9332184477
     12  C         3.3565297105   -0.5812265292    0.0491634440
     13  O         3.3913487483   -1.3850780691   -0.8721754731
     14  C         4.4489720338   -0.5918371447    1.0759888349
     15  H         4.9627919678    0.3922434499    1.0828896554
     16  H         5.1956269128   -1.3827400192    0.8486055517
     17  H         4.0165053308   -0.7859743336    2.0796445578
     18  C        -3.2766694897   -0.7445514756   -0.0913540597
     19  O        -3.4038459331   -1.9124243609   -0.4230040758
     20  O        -4.0830604669   -0.2368916243    0.8652693648
     21  H        -4.0230009040    0.6887078667    1.1403501241
   Point Group: c1    Number of degrees of freedom:    57


   Energy is   -987.645445463


 Attempting to Generate Delocalized Internal Coordinates

 57 Hessian modes will be used to form the next step
  Hessian Eigenvalues:
     0.002000    0.002000    0.006736    0.008234    0.008240    0.009136
     0.009271    0.011713    0.013844    0.014018    0.020963    0.022229
     0.050512    0.060389    0.065985    0.073692    0.074669    0.075772
     0.100690    0.113169    0.133259    0.139395    0.159999    0.160000
     0.160000    0.160000    0.160000    0.220000    0.220186    0.220582
     0.238427    0.249985    0.249999    0.250000    0.250000    0.250000
     0.250000    0.250000    0.264515    0.316396    0.316439    0.324384
     0.324495    0.324504    0.324753    0.325431    0.325701    0.325822
     0.326028    0.383485    0.425273    0.529873    0.538959    0.549731
     0.939729    0.945015    0.950766

 Minimum Search - Taking Simple RFO Step
 Searching for Lamda that Minimizes Along All modes
 Value Taken    Lamda =  -0.02290533
 Calculated Step too Large.  Step scaled by  0.814707
 Step Taken.  Stepsize is  0.300000

                             Maximum     Tolerance    Cnvgd?
         Gradient           0.029511      0.000300      NO
         Displacement       0.111420      0.001200      NO
         Energy change     *********      0.000001      NO


 New Cartesian Coordinates Obtained by Inverse Iteration

 Displacement from previous Coordinates is:  0.872272
 ----------------------------------------------------------------
             Standard Nuclear Orientation (Angstroms)
    I     Atom           X                Y                Z
 ----------------------------------------------------------------
    1      C      -2.2226469174     0.1155447499    -0.7345868854
    2      H      -1.7379536866    -0.4547036063    -1.5349799166
    3      H      -2.7262742247     0.9722421401    -1.2080142567
    4      C      -1.1744434856     0.6485281684     0.2066134275
    5      O      -1.1757985905     0.3861786588     1.3881622670
    6      S       0.1068777908     1.7160362342    -0.5103299722
    7      C       1.2931940621     0.3864183121    -0.8930365425
    8      H       0.7785926929    -0.5804265442    -0.9641568723
    9      H       1.7302234114     0.5891129982    -1.8768921406
   10      N       2.3143247351     0.3229227069     0.1197567263
   11      H       2.2676386245     0.9599432965     0.9054743275
   12      C       3.3146660605    -0.5892258077     0.0144070334
   13      O       3.3597525604    -1.3608161454    -0.9359113401
   14      C       4.3409076175    -0.5893509707     1.1129026320
   15      H       4.8517099450     0.3799264696     1.1792832789
   16      H       5.0769498882    -1.3641131916     0.8988230982
   17      H       3.8815505785    -0.7929984351     2.0884726223
   18      C      -3.2288009618    -0.7817060766    -0.0564250815
   19      O      -3.3906207592    -1.9313776413    -0.3860877966
   20      O      -3.9745579485    -0.2613271367     0.9248936748
   21      H      -3.7604498337     0.6599008624     1.1191084293
 ----------------------------------------------------------------
 Molecular Point Group                 C1    NOp =  1
 Largest Abelian Subgroup              C1    NOp =  1
 Nuclear Repulsion Energy =   785.5199510943 hartrees
 There are       50 alpha and       50 beta electrons
 Applying Cartesian multipole field
    Component          Value
    ---------          -----
     (2,0,0)        1.00000E-11
     (0,2,0)        2.00000E-11
     (0,0,2)       -3.00000E-11
 Nucleus-field energy     =     0.0000000273 hartrees
 Requested basis set is 6-31G(d)
 There are 67 shells and 202 basis functions
 A cutoff of  1.0D-11 yielded   1629 shell pairs
 There are     15438 function pairs
 Smallest overlap matrix eigenvalue = 3.10E-03
 Guess MOs from SCF MO coefficient file

 -----------------------------------------------------------------------
  General SCF calculation program by
  Eric Jon Sundstrom, Paul Horn, Yuezhi Mao, Dmitri Zuev, Alec White,
  David Stuck, Shaama M.S., Shane Yost, Joonho Lee, David Small,
  Daniel Levine, Susi Lehtola, Hugh Burton, Evgeny Epifanovsky
 -----------------------------------------------------------------------
 Exchange:  B97M-V      Correlation:  B97M-V
 Using SG-2 standard quadrature grid
 Nonlocal Correlation:  VV10 with C = 0.0100 and b = 6.00 and scale = 1.00000
 Grid used for NLC:  SG-1 standard quadrature
 using 8 threads for integral computing
 -------------------------------------------------------
 OpenMP Integral computing Module                
 Release: version 1.0, May 2013, Q-Chem Inc. Pittsburgh 
 -------------------------------------------------------
 -------------------------------------------------------
 OpenMP BLAS3 based DFT computing Module                
 Release: version 1.0, May 2013, Q-Chem Inc. Pittsburgh 
 -------------------------------------------------------
 -------------------------------------------------------
 OpenMP BLAS3 based DFT computing Module                
 Release: version 1.0, May 2013, Q-Chem Inc. Pittsburgh 
 -------------------------------------------------------
 -------------------------------------------------------
 OpenMP BLAS3 based DFT computing Module                
 Release: version 1.0, May 2013, Q-Chem Inc. Pittsburgh 
 -------------------------------------------------------
 Nonlocal correlation = 0.390866654712
 A restricted SCF calculation will be
 performed using DIIS
 SCF converges when DIIS error is below 1.0e-08
 ---------------------------------------
  Cycle       Energy         DIIS error
 ---------------------------------------
 Nonlocal correlation = 3.911157858717e-01
    1    -987.6472589303      1.12e-03  
 Nonlocal correlation = 3.909078538975e-01
    2    -987.6571804897      3.34e-04  
 Nonlocal correlation = 3.910152502675e-01
    3    -987.6567710465      4.60e-04  
 Nonlocal correlation = 3.910081645432e-01
    4    -987.6575939581      1.38e-04  
 Nonlocal correlation = 3.910134641463e-01
    5    -987.6576747024      3.31e-05  
 Nonlocal correlation = 3.910116274623e-01
    6    -987.6576792715      9.06e-06  
 Nonlocal correlation = 3.910116797232e-01
    7    -987.6576795956      3.01e-06  
 Nonlocal correlation = 3.910117517087e-01
    8    -987.6576796214      1.88e-06  
 Nonlocal correlation = 3.910117683137e-01
    9    -987.6576796361      4.18e-07  
 Nonlocal correlation = 3.910117645370e-01
   10    -987.6576796369      5.86e-08  
 Nonlocal correlation = 3.910117624228e-01
   11    -987.6576796369      2.96e-08  
   12    -987.6576796369      8.65e-09  Convergence criterion met
 ---------------------------------------
 SCF time:   CPU 706.86s  wall 88.00s 
 SCF   energy in the final basis set =     -987.6576796369
 Total energy in the final basis set =     -987.6576796369
 
 --------------------------------------------------------------
 
                    Orbital Energies (a.u.)
 --------------------------------------------------------------
 
 Alpha MOs
 -- Occupied --
-88.991 -19.222 -19.209 -19.155 -19.128 -14.380 -10.339 -10.329
-10.288 -10.276 -10.239 -10.191  -8.000  -5.872  -5.869  -5.861
 -1.109  -1.086  -1.029  -1.020  -0.926  -0.809  -0.774  -0.726
 -0.661  -0.614  -0.579  -0.561  -0.508  -0.497  -0.484  -0.469
 -0.455  -0.453  -0.428  -0.419  -0.407  -0.401  -0.383  -0.380
 -0.372  -0.360  -0.348  -0.332  -0.298  -0.277  -0.254  -0.247
 -0.240  -0.222
 -- Virtual --
 -0.101  -0.038  -0.005   0.001   0.021   0.032   0.064   0.076
  0.099   0.113   0.118   0.130   0.139   0.153   0.163   0.176
  0.214   0.219   0.239   0.290   0.302   0.327   0.339   0.352
  0.381   0.419   0.431   0.476   0.496   0.517   0.540   0.542
  0.550   0.560   0.585   0.611   0.618   0.626   0.634   0.656
  0.659   0.681   0.700   0.729   0.749   0.770   0.786   0.794
  0.812   0.812   0.818   0.833   0.844   0.871   0.878   0.880
  0.885   0.899   0.905   0.917   0.924   0.930   0.946   0.956
  0.956   0.978   1.006   1.036   1.064   1.071   1.101   1.110
  1.121   1.134   1.166   1.219   1.265   1.341   1.347   1.354
  1.394   1.401   1.407   1.430   1.485   1.506   1.546   1.576
  1.608   1.654   1.685   1.709   1.735   1.744   1.770   1.799
  1.812   1.828   1.831   1.834   1.860   1.906   1.915   1.923
  1.940   1.952   1.964   2.005   2.031   2.045   2.074   2.079
  2.098   2.135   2.162   2.203   2.261   2.282   2.305   2.384
  2.388   2.421   2.486   2.493   2.505   2.585   2.608   2.612
  2.691   2.703   2.717   2.730   2.861   2.929   2.939   3.016
  3.050   3.063   3.150   3.217   3.956   4.007   4.059   4.080
  4.158   4.194   4.320   4.327   4.427   4.445   4.617   4.697
 --------------------------------------------------------------
 
          Ground-State Mulliken Net Atomic Charges

     Atom                 Charge (a.u.)
  ----------------------------------------
      1 C                    -0.517182
      2 H                     0.237790
      3 H                     0.218622
      4 C                     0.243012
      5 O                    -0.358152
      6 S                     0.106013
      7 C                    -0.286564
      8 H                     0.205974
      9 H                     0.220465
     10 N                    -0.608184
     11 H                     0.361144
     12 C                     0.620229
     13 O                    -0.509927
     14 C                    -0.587559
     15 H                     0.179375
     16 H                     0.204348
     17 H                     0.183823
     18 C                     0.658529
     19 O                    -0.437857
     20 O                    -0.555200
     21 H                     0.421302
  ----------------------------------------
  Sum of atomic charges =    -0.000000

 -----------------------------------------------------------------
                    Cartesian Multipole Moments
 -----------------------------------------------------------------
    Charge (ESU x 10^10)
                -0.0000
    Dipole Moment (Debye)
         X       0.7636      Y       5.1067      Z       0.6163
       Tot       5.2002
    Quadrupole Moments (Debye-Ang)
        XX     -79.9723     XY      -7.8775     YY     -84.6398
        XZ      10.0415     YZ      -1.8424     ZZ     -77.0875
    Octopole Moments (Debye-Ang^2)
       XXX      23.1878    XXY      73.9863    XYY       0.0182
       YYY       5.8696    XXZ      31.2552    XYZ     -12.6632
       YYZ      12.9563    XZZ      -4.5881    YZZ       0.7538
       ZZZ       4.3715
    Hexadecapole Moments (Debye-Ang^3)
      XXXX   -3475.5769   XXXY    -141.1500   XXYY    -729.1671
      XYYY     -34.9911   YYYY    -609.9931   XXXZ     117.1618
      XXYZ     -20.2316   XYYZ      -0.0938   YYYZ       7.3502
      XXZZ    -628.0690   XYZZ       3.2594   YYZZ    -161.0294
      XZZZ      -0.7601   YZZZ      14.6034   ZZZZ    -362.2832
 -----------------------------------------------------------------
 Calculating analytic gradient of the SCF energy
 Gradient of SCF Energy
            1           2           3           4           5           6
    1  -0.0005582   0.0018795  -0.0024715   0.0035019   0.0004004  -0.0031522
    2  -0.0059597  -0.0024513   0.0017946   0.0080688  -0.0043292  -0.0018111
    3   0.0018291  -0.0004655   0.0008620  -0.0218852   0.0112973   0.0090526
            7           8           9          10          11          12
    1  -0.0012303  -0.0000413   0.0010556  -0.0014196   0.0018350  -0.0025266
    2   0.0019904  -0.0026953  -0.0002961  -0.0066006   0.0031875   0.0090745
    3   0.0008811   0.0013474  -0.0028505  -0.0085943   0.0042097   0.0082612
           13          14          15          16          17          18
    1   0.0016765  -0.0007605   0.0016095   0.0016552  -0.0015854   0.0011305
    2  -0.0033426  -0.0024910   0.0026130  -0.0015438  -0.0011169   0.0167837
    3  -0.0024690  -0.0037490  -0.0005648  -0.0003661   0.0023759   0.0049827
           19          20          21
    1  -0.0021818   0.0060914  -0.0049118
    2  -0.0088666  -0.0019852  -0.0000245
    3  -0.0016641  -0.0039780   0.0014878
 Max gradient component =       2.189E-02
 RMS gradient           =       5.243E-03
 Gradient time:  CPU 172.97 s  wall 38.63 s
 Geometry Optimization Parameters
   NAtoms,    NIC,     NZ,  NCons,   NDum,   NFix, NCnnct, MaxDiis
       21     129       0       0       0       0       0       0

 Cartesian Hessian Update
 Hessian Updated using BFGS Update


** GEOMETRY OPTIMIZATION IN DELOCALIZED INTERNAL COORDINATES **
   Searching for a Minimum

   Optimization Cycle:   2

                       Coordinates (Angstroms)
     ATOM                X               Y               Z
      1  C        -2.2226469174    0.1155447499   -0.7345868854
      2  H        -1.7379536866   -0.4547036063   -1.5349799166
      3  H        -2.7262742247    0.9722421401   -1.2080142567
      4  C        -1.1744434856    0.6485281684    0.2066134275
      5  O        -1.1757985905    0.3861786588    1.3881622670
      6  S         0.1068777908    1.7160362342   -0.5103299722
      7  C         1.2931940621    0.3864183121   -0.8930365425
      8  H         0.7785926929   -0.5804265442   -0.9641568723
      9  H         1.7302234114    0.5891129982   -1.8768921406
     10  N         2.3143247351    0.3229227069    0.1197567263
     11  H         2.2676386245    0.9599432965    0.9054743275
     12  C         3.3146660605   -0.5892258077    0.0144070334
     13  O         3.3597525604   -1.3608161454   -0.9359113401
     14  C         4.3409076175   -0.5893509707    1.1129026320
     15  H         4.8517099450    0.3799264696    1.1792832789
     16  H         5.0769498882   -1.3641131916    0.8988230982
     17  H         3.8815505785   -0.7929984351    2.0884726223
     18  C        -3.2288009618   -0.7817060766   -0.0564250815
     19  O        -3.3906207592   -1.9313776413   -0.3860877966
     20  O        -3.9745579485   -0.2613271367    0.9248936748
     21  H        -3.7604498337    0.6599008624    1.1191084293
   Point Group: c1    Number of degrees of freedom:    57


   Energy is   -987.657679637

 Hessian Updated using BFGS Update

 53 Hessian modes will be used to form the next step
  Hessian Eigenvalues:
     0.001992    0.002003    0.006735    0.008175    0.008239    0.009137
     0.009271    0.011718    0.013837    0.014018    0.020963    0.022036
     0.050525    0.060553    0.065509    0.073708    0.074669    0.075799
     0.100627    0.112770    0.133208    0.139396    0.156423    0.159999
     0.167124    0.215791    0.220396    0.222164    0.230885    0.238682
     0.249991    0.249999    0.250000    0.261634    0.265945    0.315109
     0.316453    0.324119    0.324430    0.324525    0.324887    0.325525
     0.325739    0.325955    0.333661    0.386972    0.423923    0.530759
     0.539214    0.571722    0.917255    0.943694    0.953958

 Minimum Search - Taking Simple RFO Step
 Searching for Lamda that Minimizes Along All modes
 Value Taken    Lamda =  -0.00626185
 Calculated Step too Large.  Step scaled by  0.483946
 Step Taken.  Stepsize is  0.300000

                             Maximum     Tolerance    Cnvgd?
         Gradient           0.011715      0.000300      NO
         Displacement       0.113733      0.001200      NO
         Energy change     -0.012234      0.000001      NO


 New Cartesian Coordinates Obtained by Inverse Iteration

 Displacement from previous Coordinates is:  1.222028
 ----------------------------------------------------------------
             Standard Nuclear Orientation (Angstroms)
    I     Atom           X                Y                Z
 ----------------------------------------------------------------
    1      C      -2.1935588773     0.1024130613    -0.7131751826
    2      H      -1.7305044349    -0.4621266835    -1.5269757167
    3      H      -2.7356465677     0.9347161238    -1.1825851656
    4      C      -1.1216289219     0.6876078081     0.1700318368
    5      O      -1.0766567971     0.4940709804     1.3594966229
    6      S       0.1023673397     1.7512095128    -0.6646916671
    7      C       1.3167667859     0.4381386427    -1.0059130995
    8      H       0.8081994143    -0.5206426096    -1.1533219468
    9      H       1.8181595642     0.6788599850    -1.9462860322
   10      N       2.2628146826     0.3332675670     0.0744862037
   11      H       2.1517034278     0.9308940177     0.8792111856
   12      C       3.2655027310    -0.5814341570    -0.0030251554
   13      O       3.3755981913    -1.3063482712    -0.9824157309
   14      C       4.2029379802    -0.6295606937     1.1725141202
   15      H       4.7034637430     0.3324947806     1.3209629744
   16      H       4.9530064393    -1.3947638883     0.9856289563
   17      H       3.6707446910    -0.8705224073     2.0978853922
   18      C      -3.1420000528    -0.8218759595     0.0175084032
   19      O      -3.2963888153    -1.9718646710    -0.3022044062
   20      O      -3.8331888643    -0.3042254356     1.0421306442
   21      H      -3.5768501002     0.6104013388     1.2182144764
 ----------------------------------------------------------------
 Molecular Point Group                 C1    NOp =  1
 Largest Abelian Subgroup              C1    NOp =  1
 Nuclear Repulsion Energy =   788.3226592727 hartrees
 There are       50 alpha and       50 beta electrons
 Applying Cartesian multipole field
    Component          Value
    ---------          -----
     (2,0,0)        1.00000E-11
     (0,2,0)        2.00000E-11
     (0,0,2)       -3.00000E-11
 Nucleus-field energy     =     0.0000000256 hartrees
 Requested basis set is 6-31G(d)
 There are 67 shells and 202 basis functions
 A cutoff of  1.0D-11 yielded   1641 shell pairs
 There are     15552 function pairs
 Smallest overlap matrix eigenvalue = 3.14E-03
 Guess MOs from SCF MO coefficient file

 -----------------------------------------------------------------------
  General SCF calculation program by
  Eric Jon Sundstrom, Paul Horn, Yuezhi Mao, Dmitri Zuev, Alec White,
  David Stuck, Shaama M.S., Shane Yost, Joonho Lee, David Small,
  Daniel Levine, Susi Lehtola, Hugh Burton, Evgeny Epifanovsky
 -----------------------------------------------------------------------
 Exchange:  B97M-V      Correlation:  B97M-V
 Using SG-2 standard quadrature grid
 Nonlocal Correlation:  VV10 with C = 0.0100 and b = 6.00 and scale = 1.00000
 Grid used for NLC:  SG-1 standard quadrature
 using 8 threads for integral computing
 -------------------------------------------------------
 OpenMP Integral computing Module                
 Release: version 1.0, May 2013, Q-Chem Inc. Pittsburgh 
 -------------------------------------------------------
 -------------------------------------------------------
 OpenMP BLAS3 based DFT computing Module                
 Release: version 1.0, May 2013, Q-Chem Inc. Pittsburgh 
 -------------------------------------------------------
 -------------------------------------------------------
 OpenMP BLAS3 based DFT computing Module                
 Release: version 1.0, May 2013, Q-Chem Inc. Pittsburgh 
 -------------------------------------------------------
 -------------------------------------------------------
 OpenMP BLAS3 based DFT computing Module                
 Release: version 1.0, May 2013, Q-Chem Inc. Pittsburgh 
 -------------------------------------------------------
 Nonlocal correlation = 0.390899148911
 A restricted SCF calculation will be
 performed using DIIS
 SCF converges when DIIS error is below 1.0e-08
 ---------------------------------------
  Cycle       Energy         DIIS error
 ---------------------------------------
 Nonlocal correlation = 3.909329118577e-01
    1    -987.6420140317      1.41e-03  
 Nonlocal correlation = 3.908956147744e-01
    2    -987.6602205422      1.59e-04  
 Nonlocal correlation = 3.909231690200e-01
    3    -987.6602148703      1.70e-04  
 Nonlocal correlation = 3.909146716243e-01
    4    -987.6603171275      9.54e-05  
 Nonlocal correlation = 3.909172404497e-01
    5    -987.6603538482      1.91e-05  
 Nonlocal correlation = 3.909155761726e-01
    6    -987.6603554668      6.23e-06  
 Nonlocal correlation = 3.909161139258e-01
    7    -987.6603556205      2.15e-06  
 Nonlocal correlation = 3.909160322087e-01
    8    -987.6603556348      1.06e-06  
 Nonlocal correlation = 3.909160299170e-01
    9    -987.6603556394      2.65e-07  
 Nonlocal correlation = 3.909160334668e-01
   10    -987.6603556397      7.79e-08  
 Nonlocal correlation = 3.909160320361e-01
   11    -987.6603556397      1.83e-08  
   12    -987.6603556397      6.68e-09  Convergence criterion met
 ---------------------------------------
 SCF time:   CPU 709.34s  wall 89.00s 
 SCF   energy in the final basis set =     -987.6603556397
 Total energy in the final basis set =     -987.6603556397
 
 --------------------------------------------------------------
 
                    Orbital Energies (a.u.)
 --------------------------------------------------------------
 
 Alpha MOs
 -- Occupied --
-88.991 -19.222 -19.212 -19.157 -19.129 -14.379 -10.341 -10.330
-10.288 -10.275 -10.239 -10.190  -8.000  -5.872  -5.869  -5.861
 -1.110  -1.091  -1.030  -1.023  -0.926  -0.810  -0.774  -0.726
 -0.660  -0.611  -0.579  -0.562  -0.510  -0.497  -0.485  -0.469
 -0.457  -0.453  -0.429  -0.421  -0.408  -0.402  -0.385  -0.381
 -0.373  -0.362  -0.350  -0.333  -0.300  -0.278  -0.256  -0.248
 -0.240  -0.222
 -- Virtual --
 -0.101  -0.038  -0.004   0.001   0.020   0.032   0.066   0.075
  0.100   0.116   0.119   0.132   0.140   0.154   0.164   0.177
  0.214   0.217   0.240   0.290   0.301   0.328   0.339   0.350
  0.381   0.419   0.430   0.472   0.498   0.514   0.539   0.542
  0.551   0.561   0.586   0.609   0.620   0.629   0.637   0.655
  0.661   0.680   0.698   0.731   0.751   0.765   0.784   0.793
  0.811   0.815   0.819   0.832   0.846   0.871   0.878   0.882
  0.894   0.896   0.908   0.918   0.924   0.928   0.947   0.955
  0.958   0.979   1.014   1.031   1.066   1.075   1.096   1.113
  1.118   1.132   1.161   1.216   1.262   1.344   1.348   1.353
  1.388   1.401   1.406   1.427   1.485   1.502   1.546   1.586
  1.605   1.655   1.689   1.713   1.731   1.745   1.770   1.798
  1.810   1.828   1.829   1.834   1.856   1.901   1.908   1.922
  1.939   1.953   1.964   2.005   2.032   2.045   2.068   2.077
  2.099   2.136   2.163   2.205   2.262   2.285   2.308   2.384
  2.393   2.421   2.482   2.485   2.506   2.583   2.610   2.616
  2.695   2.704   2.715   2.732   2.858   2.933   2.943   3.018
  3.052   3.066   3.147   3.217   3.951   4.006   4.058   4.084
  4.161   4.192   4.326   4.331   4.430   4.453   4.619   4.698
 --------------------------------------------------------------
 
          Ground-State Mulliken Net Atomic Charges

     Atom                 Charge (a.u.)
  ----------------------------------------
      1 C                    -0.521898
      2 H                     0.237431
      3 H                     0.222961
      4 C                     0.243601
      5 O                    -0.358000
      6 S                     0.103912
      7 C                    -0.287619
      8 H                     0.204508
      9 H                     0.221987
     10 N                    -0.608414
     11 H                     0.362125
     12 C                     0.619295
     13 O                    -0.508955
     14 C                    -0.588096
     15 H                     0.180675
     16 H                     0.203604
     17 H                     0.184641
     18 C                     0.658147
     19 O                    -0.435689
     20 O                    -0.555996
     21 H                     0.421779
  ----------------------------------------
  Sum of atomic charges =    -0.000000

 -----------------------------------------------------------------
                    Cartesian Multipole Moments
 -----------------------------------------------------------------
    Charge (ESU x 10^10)
                -0.0000
    Dipole Moment (Debye)
         X       0.5448      Y       4.8476      Z       0.6394
       Tot       4.9198
    Quadrupole Moments (Debye-Ang)
        XX     -80.9344     XY      -7.5510     YY     -84.8606
        XZ      10.4274     YZ      -1.7452     ZZ     -76.9151
    Octopole Moments (Debye-Ang^2)
       XXX      10.3244    XXY      68.0465    XYY       0.1039
       YYY       2.5115    XXZ      30.7887    XYZ     -14.0823
       YYZ      13.6305    XZZ      -5.6960    YZZ      -0.0527
       ZZZ       9.4196
    Hexadecapole Moments (Debye-Ang^3)
      XXXX   -3336.9979   XXXY    -124.8474   XXYY    -706.0298
      XYYY     -43.0322   YYYY    -632.2272   XXXZ     149.5611
      XXYZ     -13.8589   XYYZ       7.8564   YYYZ      25.2136
      XXZZ    -610.1315   XYZZ       3.4073   YYZZ    -169.5067
      XZZZ      17.0116   YZZZ      32.2407   ZZZZ    -396.9189
 -----------------------------------------------------------------
 Calculating analytic gradient of the SCF energy
 Gradient of SCF Energy
            1           2           3           4           5           6
    1  -0.0011471   0.0006400  -0.0008940   0.0030362  -0.0002467  -0.0026831
    2  -0.0023935  -0.0014883   0.0007370   0.0033343  -0.0022947  -0.0005341
    3   0.0008517   0.0002280   0.0003921  -0.0122405   0.0053774   0.0073279
            7           8           9          10          11          12
    1   0.0004953   0.0001598   0.0004726  -0.0004025   0.0009465  -0.0019271
    2   0.0009395  -0.0011722  -0.0010023  -0.0027978   0.0010563   0.0052690
    3  -0.0016745   0.0014311  -0.0010161  -0.0036406   0.0014434   0.0045582
           13          14          15          16          17          18
    1   0.0009836  -0.0001801   0.0006726   0.0003883  -0.0005071  -0.0003686
    2  -0.0021601  -0.0010394   0.0009228  -0.0004691  -0.0004665   0.0097545
    3  -0.0018851  -0.0014872  -0.0000977  -0.0002447   0.0007242   0.0027469
           19          20          21
    1  -0.0006598   0.0040322  -0.0028145
    2  -0.0047811  -0.0016282   0.0002128
    3  -0.0004169  -0.0023854   0.0000079
 Max gradient component =       1.224E-02
 RMS gradient           =       2.925E-03
 Gradient time:  CPU 173.43 s  wall 39.03 s
 Geometry Optimization Parameters
   NAtoms,    NIC,     NZ,  NCons,   NDum,   NFix, NCnnct, MaxDiis
       21     129       0       0       0       0       0       0

 Cartesian Hessian Update
 Hessian Updated using BFGS Update


** GEOMETRY OPTIMIZATION IN DELOCALIZED INTERNAL COORDINATES **
   Searching for a Minimum

   Optimization Cycle:   3

                       Coordinates (Angstroms)
     ATOM                X               Y               Z
      1  C        -2.1935588773    0.1024130613   -0.7131751826
      2  H        -1.7305044349   -0.4621266835   -1.5269757167
      3  H        -2.7356465677    0.9347161238   -1.1825851656
      4  C        -1.1216289219    0.6876078081    0.1700318368
      5  O        -1.0766567971    0.4940709804    1.3594966229
      6  S         0.1023673397    1.7512095128   -0.6646916671
      7  C         1.3167667859    0.4381386427   -1.0059130995
      8  H         0.8081994143   -0.5206426096   -1.1533219468
      9  H         1.8181595642    0.6788599850   -1.9462860322
     10  N         2.2628146826    0.3332675670    0.0744862037
     11  H         2.1517034278    0.9308940177    0.8792111856
     12  C         3.2655027310   -0.5814341570   -0.0030251554
     13  O         3.3755981913   -1.3063482712   -0.9824157309
     14  C         4.2029379802   -0.6295606937    1.1725141202
     15  H         4.7034637430    0.3324947806    1.3209629744
     16  H         4.9530064393   -1.3947638883    0.9856289563
     17  H         3.6707446910   -0.8705224073    2.0978853922
     18  C        -3.1420000528   -0.8218759595    0.0175084032
     19  O        -3.2963888153   -1.9718646710   -0.3022044062
     20  O        -3.8331888643   -0.3042254356    1.0421306442
     21  H        -3.5768501002    0.6104013388    1.2182144764
   Point Group: c1    Number of degrees of freedom:    57


   Energy is   -987.660355640

 Hessian Updated using BFGS Update

 55 Hessian modes will be used to form the next step
  Hessian Eigenvalues:
     0.001335    0.002040    0.006426    0.007814    0.008243    0.009201
     0.009271    0.011937    0.013774    0.014019    0.020791    0.021146
     0.050818    0.060469    0.065508    0.073715    0.074669    0.075782
     0.100487    0.111180    0.132436    0.139184    0.159371    0.159999
     0.160131    0.173374    0.208508    0.220511    0.222685    0.230226
     0.240914    0.249992    0.250000    0.250000    0.260233    0.262755
     0.281920    0.315168    0.317407    0.324422    0.324438    0.324595
     0.325493    0.325712    0.325889    0.327100    0.356013    0.388180
     0.441967    0.530332    0.539227    0.571317    0.933022    0.950896
     0.957355

 Minimum Search - Taking Simple RFO Step
 Searching for Lamda that Minimizes Along All modes
 Value Taken    Lamda =  -0.00621914
 Calculated Step too Large.  Step scaled by  0.370183
 Step Taken.  Stepsize is  0.300000

                             Maximum     Tolerance    Cnvgd?
         Gradient           0.006127      0.000300      NO
         Displacement       0.097782      0.001200      NO
         Energy change     -0.002676      0.000001      NO


 New Cartesian Coordinates Obtained by Inverse Iteration

 Displacement from previous Coordinates is:  1.302485
 ----------------------------------------------------------------
             Standard Nuclear Orientation (Angstroms)
    I     Atom           X                Y                Z
 ----------------------------------------------------------------
    1      C      -2.1568046523     0.1073810570    -0.6929144453
    2      H      -1.7151873278    -0.4339523573    -1.5321424226
    3      H      -2.7576673828     0.9111322601    -1.1368930182
    4      C      -1.0689744511     0.7553401339     0.1250075408
    5      O      -0.9517945798     0.6046771568     1.3126969656
    6      S       0.1017884480     1.7914423845    -0.8286467478
    7      C       1.3300963118     0.4818568178    -1.1114694125
    8      H       0.8270650943    -0.4677181098    -1.3169474233
    9      H       1.8870608859     0.7444162939    -2.0122691549
   10      N       2.2035204245     0.3457979850     0.0258240960
   11      H       2.0366910819     0.9196768370     0.8355921722
   12      C       3.1998178039    -0.5808280759    -0.0105910362
   13      O       3.3685841916    -1.2773064708    -1.0004545366
   14      C       4.0471302569    -0.6679063631     1.2304262213
   15      H       4.5410738466     0.2839336636     1.4410842860
   16      H       4.8024807384    -1.4348410503     1.0822765577
   17      H       3.4458278202    -0.9246824740     2.1061236571
   18      C      -3.0211674607    -0.8654030212     0.0844446192
   19      O      -3.1663830156    -2.0094777814    -0.2507780141
   20      O      -3.6557237007    -0.3794877691     1.1629116204
   21      H      -3.3725927741     0.5266579249     1.3441951880
 ----------------------------------------------------------------
 Molecular Point Group                 C1    NOp =  1
 Largest Abelian Subgroup              C1    NOp =  1
 Nuclear Repulsion Energy =   792.0314188064 hartrees
 There are       50 alpha and       50 beta electrons
 Applying Cartesian multipole field
    Component          Value
    ---------          -----
     (2,0,0)        1.00000E-11
     (0,2,0)        2.00000E-11
     (0,0,2)       -3.00000E-11
 Nucleus-field energy     =     0.0000000235 hartrees
 Requested basis set is 6-31G(d)
 There are 67 shells and 202 basis functions
 A cutoff of  1.0D-11 yielded   1662 shell pairs
 There are     15672 function pairs
 Smallest overlap matrix eigenvalue = 3.16E-03
 Guess MOs from SCF MO coefficient file

 -----------------------------------------------------------------------
  General SCF calculation program by
  Eric Jon Sundstrom, Paul Horn, Yuezhi Mao, Dmitri Zuev, Alec White,
  David Stuck, Shaama M.S., Shane Yost, Joonho Lee, David Small,
  Daniel Levine, Susi Lehtola, Hugh Burton, Evgeny Epifanovsky
 -----------------------------------------------------------------------
 Exchange:  B97M-V      Correlation:  B97M-V
 Using SG-2 standard quadrature grid
 Nonlocal Correlation:  VV10 with C = 0.0100 and b = 6.00 and scale = 1.00000
 Grid used for NLC:  SG-1 standard quadrature
 using 8 threads for integral computing
 -------------------------------------------------------
 OpenMP Integral computing Module                
 Release: version 1.0, May 2013, Q-Chem Inc. Pittsburgh 
 -------------------------------------------------------
 -------------------------------------------------------
 OpenMP BLAS3 based DFT computing Module                
 Release: version 1.0, May 2013, Q-Chem Inc. Pittsburgh 
 -------------------------------------------------------
 -------------------------------------------------------
 OpenMP BLAS3 based DFT computing Module                
 Release: version 1.0, May 2013, Q-Chem Inc. Pittsburgh 
 -------------------------------------------------------
 -------------------------------------------------------
 OpenMP BLAS3 based DFT computing Module                
 Release: version 1.0, May 2013, Q-Chem Inc. Pittsburgh 
 -------------------------------------------------------
 Nonlocal correlation = 0.390746413716
 A restricted SCF calculation will be
 performed using DIIS
 SCF converges when DIIS error is below 1.0e-08
 ---------------------------------------
  Cycle       Energy         DIIS error
 ---------------------------------------
 Nonlocal correlation = 3.907634087740e-01
    1    -987.6450351379      1.38e-03  
 Nonlocal correlation = 3.907387813691e-01
    2    -987.6622424275      1.48e-04  
 Nonlocal correlation = 3.907608705592e-01
    3    -987.6622413447      1.57e-04  
 Nonlocal correlation = 3.907508223820e-01
    4    -987.6623336403      8.39e-05  
 Nonlocal correlation = 3.907547202659e-01
    5    -987.6623615956      2.03e-05  
 Nonlocal correlation = 3.907530174800e-01
    6    -987.6623633758      6.43e-06  
 Nonlocal correlation = 3.907533785565e-01
    7    -987.6623635393      1.84e-06  
 Nonlocal correlation = 3.907533495506e-01
    8    -987.6623635503      8.50e-07  
 Nonlocal correlation = 3.907533480237e-01
    9    -987.6623635533      2.40e-07  
 Nonlocal correlation = 3.907533513578e-01
   10    -987.6623635535      7.99e-08  
 Nonlocal correlation = 3.907533501213e-01
   11    -987.6623635535      1.74e-08  
   12    -987.6623635535      4.93e-09  Convergence criterion met
 ---------------------------------------
 SCF time:   CPU 712.19s  wall 89.00s 
 SCF   energy in the final basis set =     -987.6623635535
 Total energy in the final basis set =     -987.6623635535
 
 --------------------------------------------------------------
 
                    Orbital Energies (a.u.)
 --------------------------------------------------------------
 
 Alpha MOs
 -- Occupied --
-88.991 -19.222 -19.215 -19.158 -19.129 -14.379 -10.343 -10.331
-10.288 -10.274 -10.240 -10.190  -8.000  -5.872  -5.868  -5.861
 -1.110  -1.095  -1.030  -1.025  -0.926  -0.810  -0.774  -0.726
 -0.660  -0.609  -0.579  -0.563  -0.512  -0.496  -0.487  -0.470
 -0.458  -0.453  -0.430  -0.422  -0.409  -0.403  -0.387  -0.381
 -0.374  -0.363  -0.350  -0.333  -0.301  -0.279  -0.257  -0.249
 -0.240  -0.223
 -- Virtual --
 -0.101  -0.039  -0.004   0.001   0.021   0.032   0.067   0.076
  0.100   0.117   0.120   0.134   0.140   0.156   0.164   0.177
  0.213   0.215   0.243   0.290   0.300   0.330   0.339   0.349
  0.381   0.418   0.427   0.471   0.499   0.513   0.537   0.542
  0.551   0.560   0.586   0.607   0.623   0.631   0.639   0.655
  0.661   0.679   0.694   0.732   0.752   0.760   0.774   0.795
  0.809   0.814   0.821   0.831   0.846   0.870   0.877   0.882
  0.895   0.902   0.917   0.918   0.923   0.927   0.948   0.954
  0.964   0.980   1.021   1.029   1.068   1.076   1.093   1.111
  1.119   1.128   1.156   1.214   1.259   1.343   1.350   1.352
  1.383   1.400   1.404   1.425   1.491   1.500   1.542   1.594
  1.605   1.654   1.686   1.715   1.726   1.749   1.770   1.800
  1.810   1.826   1.829   1.832   1.853   1.893   1.904   1.920
  1.939   1.954   1.969   2.005   2.032   2.043   2.065   2.074
  2.099   2.135   2.163   2.205   2.261   2.287   2.311   2.384
  2.396   2.421   2.474   2.483   2.509   2.582   2.611   2.615
  2.696   2.705   2.713   2.731   2.855   2.935   2.946   3.019
  3.054   3.070   3.145   3.217   3.947   4.005   4.057   4.091
  4.163   4.190   4.330   4.335   4.433   4.459   4.621   4.698
 --------------------------------------------------------------
 
          Ground-State Mulliken Net Atomic Charges

     Atom                 Charge (a.u.)
  ----------------------------------------
      1 C                    -0.524561
      2 H                     0.238284
      3 H                     0.226641
      4 C                     0.243891
      5 O                    -0.360395
      6 S                     0.102805
      7 C                    -0.288411
      8 H                     0.204153
      9 H                     0.223013
     10 N                    -0.609432
     11 H                     0.362540
     12 C                     0.618630
     13 O                    -0.507618
     14 C                    -0.588155
     15 H                     0.181519
     16 H                     0.202982
     17 H                     0.185240
     18 C                     0.658472
     19 O                    -0.433633
     20 O                    -0.558631
     21 H                     0.422668
  ----------------------------------------
  Sum of atomic charges =     0.000000

 -----------------------------------------------------------------
                    Cartesian Multipole Moments
 -----------------------------------------------------------------
    Charge (ESU x 10^10)
                 0.0000
    Dipole Moment (Debye)
         X       0.2550      Y       4.6653      Z       0.7104
       Tot       4.7260
    Quadrupole Moments (Debye-Ang)
        XX     -81.2757     XY      -7.1825     YY     -85.3129
        XZ      10.2381     YZ      -1.6263     ZZ     -76.6271
    Octopole Moments (Debye-Ang^2)
       XXX      -4.7795    XXY      62.2269    XYY      -0.6477
       YYY      -0.6396    XXZ      31.0104    XYZ     -15.0934
       YYZ      14.7895    XZZ      -7.0228    YZZ      -0.7781
       ZZZ      15.1743
    Hexadecapole Moments (Debye-Ang^3)
      XXXX   -3146.4748   XXXY    -106.6929   XXYY    -677.9583
      XYYY     -48.4849   YYYY    -662.8286   XXXZ     166.2222
      XXYZ      -7.0490   XYYZ      14.2525   YYYZ      45.1016
      XXZZ    -584.7365   XYZZ       2.5480   YYZZ    -180.7113
      XZZZ      27.5905   YZZZ      52.7081   ZZZZ    -435.7838
 -----------------------------------------------------------------
 Calculating analytic gradient of the SCF energy
 Gradient of SCF Energy
            1           2           3           4           5           6
    1  -0.0007771  -0.0003638   0.0007328  -0.0007137   0.0007560  -0.0011835
    2  -0.0010386  -0.0010945   0.0004618   0.0043880  -0.0023789  -0.0011878
    3  -0.0007230   0.0003227   0.0002478  -0.0029141   0.0002931   0.0051147
            7           8           9          10          11          12
    1   0.0015616  -0.0000130  -0.0000477   0.0000246   0.0004141  -0.0009640
    2   0.0008354  -0.0001229  -0.0013651  -0.0009021   0.0000126   0.0025383
    3  -0.0030197   0.0012026  -0.0001229  -0.0001922  -0.0003570   0.0017469
           13          14          15          16          17          18
    1   0.0003970  -0.0000234   0.0001061  -0.0002452   0.0001476   0.0004501
    2  -0.0011184  -0.0002069  -0.0000556   0.0000819  -0.0000169   0.0032940
    3  -0.0011970  -0.0001432   0.0000958  -0.0002063  -0.0000014   0.0016828
           19          20          21
    1  -0.0002329   0.0017930  -0.0018220
    2  -0.0015218  -0.0008112   0.0002074
    3   0.0002789  -0.0012529  -0.0008556
 Max gradient component =       5.115E-03
 RMS gradient           =       1.403E-03
 Gradient time:  CPU 173.88 s  wall 39.37 s
 Geometry Optimization Parameters
   NAtoms,    NIC,     NZ,  NCons,   NDum,   NFix, NCnnct, MaxDiis
       21     129       0       0       0       0       0       0

 Cartesian Hessian Update
 Hessian Updated using BFGS Update


** GEOMETRY OPTIMIZATION IN DELOCALIZED INTERNAL COORDINATES **
   Searching for a Minimum

   Optimization Cycle:   4

                       Coordinates (Angstroms)
     ATOM                X               Y               Z
      1  C        -2.1568046523    0.1073810570   -0.6929144453
      2  H        -1.7151873278   -0.4339523573   -1.5321424226
      3  H        -2.7576673828    0.9111322601   -1.1368930182
      4  C        -1.0689744511    0.7553401339    0.1250075408
      5  O        -0.9517945798    0.6046771568    1.3126969656
      6  S         0.1017884480    1.7914423845   -0.8286467478
      7  C         1.3300963118    0.4818568178   -1.1114694125
      8  H         0.8270650943   -0.4677181098   -1.3169474233
      9  H         1.8870608859    0.7444162939   -2.0122691549
     10  N         2.2035204245    0.3457979850    0.0258240960
     11  H         2.0366910819    0.9196768370    0.8355921722
     12  C         3.1998178039   -0.5808280759   -0.0105910362
     13  O         3.3685841916   -1.2773064708   -1.0004545366
     14  C         4.0471302569   -0.6679063631    1.2304262213
     15  H         4.5410738466    0.2839336636    1.4410842860
     16  H         4.8024807384   -1.4348410503    1.0822765577
     17  H         3.4458278202   -0.9246824740    2.1061236571
     18  C        -3.0211674607   -0.8654030212    0.0844446192
     19  O        -3.1663830156   -2.0094777814   -0.2507780141
     20  O        -3.6557237007   -0.3794877691    1.1629116204
     21  H        -3.3725927741    0.5266579249    1.3441951880
   Point Group: c1    Number of degrees of freedom:    57


   Energy is   -987.662363554

 Hessian Updated using BFGS Update

 57 Hessian modes will be used to form the next step
  Hessian Eigenvalues:
     0.001212    0.002637    0.004850    0.008238    0.009190    0.009271
     0.010822    0.013675    0.014018    0.018009    0.020386    0.021020
     0.050685    0.060150    0.065999    0.073701    0.074668    0.075804
     0.100819    0.110905    0.134653    0.138369    0.158850    0.160000
     0.160032    0.160252    0.173377    0.200409    0.220638    0.222644
     0.228142    0.240463    0.249994    0.250000    0.250000    0.253641
     0.260466    0.263269    0.293218    0.315562    0.319305    0.324404
     0.324487    0.324597    0.325492    0.325806    0.325965    0.327958
     0.371268    0.388770    0.461096    0.529765    0.539227    0.568640
     0.936833    0.953702    0.994121

 Minimum Search - Taking Simple RFO Step
 Searching for Lamda that Minimizes Along All modes
 Value Taken    Lamda =  -0.00554819
 Calculated Step too Large.  Step scaled by  0.354135
 Step Taken.  Stepsize is  0.300000

                             Maximum     Tolerance    Cnvgd?
         Gradient           0.003659      0.000300      NO
         Displacement       0.108937      0.001200      NO
         Energy change     -0.002008      0.000001      NO


 New Cartesian Coordinates Obtained by Inverse Iteration

 Displacement from previous Coordinates is:  1.178858
 ----------------------------------------------------------------
             Standard Nuclear Orientation (Angstroms)
    I     Atom           X                Y                Z
 ----------------------------------------------------------------
    1      C      -2.1595696146     0.1211570825    -0.6845386410
    2      H      -1.7862246566    -0.3900102320    -1.5729268139
    3      H      -2.7877105532     0.9381280685    -1.0597308767
    4      C      -1.0142925852     0.7529446390     0.0637791859
    5      O      -0.8364187002     0.6371368573     1.2457040446
    6      S       0.0958615669     1.7808309926    -0.9806006420
    7      C       1.3550136037     0.4938437106    -1.1984707235
    8      H       0.8787518848    -0.4574390098    -1.4505195949
    9      H       1.9543250917     0.7828264359    -2.0624099385
   10      N       2.1623016146     0.3508349217    -0.0135650296
   11      H       1.9352615578     0.9049690270     0.7939330779
   12      C       3.1654112634    -0.5716703804    -0.0060970739
   13      O       3.4004116809    -1.2454404261    -0.9965008951
   14      C       3.9265723955    -0.6746023860     1.2892991004
   15      H       4.3951126996     0.2764428208     1.5498084566
   16      H       4.6966994528    -1.4327433141     1.1830595848
   17      H       3.2682753488    -0.9494168184     2.1161074883
   18      C      -2.9698348175    -0.8796223602     0.1204940664
   19      O      -3.1788718457    -1.9960364810    -0.2630151671
   20      O      -3.4739113201    -0.4395548752     1.2867602098
   21      H      -3.1023225087     0.4281307688     1.4969068941
 ----------------------------------------------------------------
 Molecular Point Group                 C1    NOp =  1
 Largest Abelian Subgroup              C1    NOp =  1
 Nuclear Repulsion Energy =   794.6575185380 hartrees
 There are       50 alpha and       50 beta electrons
 Applying Cartesian multipole field
    Component          Value
    ---------          -----
     (2,0,0)        1.00000E-11
     (0,2,0)        2.00000E-11
     (0,0,2)       -3.00000E-11
 Nucleus-field energy     =     0.0000000216 hartrees
 Requested basis set is 6-31G(d)
 There are 67 shells and 202 basis functions
 A cutoff of  1.0D-11 yielded   1677 shell pairs
 There are     15793 function pairs
 Smallest overlap matrix eigenvalue = 3.19E-03
 Guess MOs from SCF MO coefficient file

 -----------------------------------------------------------------------
  General SCF calculation program by
  Eric Jon Sundstrom, Paul Horn, Yuezhi Mao, Dmitri Zuev, Alec White,
  David Stuck, Shaama M.S., Shane Yost, Joonho Lee, David Small,
  Daniel Levine, Susi Lehtola, Hugh Burton, Evgeny Epifanovsky
 -----------------------------------------------------------------------
 Exchange:  B97M-V      Correlation:  B97M-V
 Using SG-2 standard quadrature grid
 Nonlocal Correlation:  VV10 with C = 0.0100 and b = 6.00 and scale = 1.00000
 Grid used for NLC:  SG-1 standard quadrature
 using 8 threads for integral computing
 -------------------------------------------------------
 OpenMP Integral computing Module                
 Release: version 1.0, May 2013, Q-Chem Inc. Pittsburgh 
 -------------------------------------------------------
 -------------------------------------------------------
 OpenMP BLAS3 based DFT computing Module                
 Release: version 1.0, May 2013, Q-Chem Inc. Pittsburgh 
 -------------------------------------------------------
 -------------------------------------------------------
 OpenMP BLAS3 based DFT computing Module                
 Release: version 1.0, May 2013, Q-Chem Inc. Pittsburgh 
 -------------------------------------------------------
 -------------------------------------------------------
 OpenMP BLAS3 based DFT computing Module                
 Release: version 1.0, May 2013, Q-Chem Inc. Pittsburgh 
 -------------------------------------------------------
 Nonlocal correlation = 0.390592187052
 A restricted SCF calculation will be
 performed using DIIS
 SCF converges when DIIS error is below 1.0e-08
 ---------------------------------------
  Cycle       Energy         DIIS error
 ---------------------------------------
 Nonlocal correlation = 3.906018015134e-01
    1    -987.6389186338      1.65e-03  
 Nonlocal correlation = 3.905782466503e-01
    2    -987.6638466659      2.28e-04  
 Nonlocal correlation = 3.906054271287e-01
    3    -987.6636137690      3.36e-04  
 Nonlocal correlation = 3.905883005396e-01
    4    -987.6640356749      1.11e-04  
 Nonlocal correlation = 3.905963520749e-01
    5    -987.6640829002      3.62e-05  
 Nonlocal correlation = 3.905948172874e-01
    6    -987.6640883289      7.15e-06  
 Nonlocal correlation = 3.905947725445e-01
    7    -987.6640885345      2.13e-06  
 Nonlocal correlation = 3.905949037088e-01
    8    -987.6640885513      1.22e-06  
 Nonlocal correlation = 3.905949056488e-01
    9    -987.6640885573      2.65e-07  
 Nonlocal correlation = 3.905949003991e-01
   10    -987.6640885576      9.00e-08  
 Nonlocal correlation = 3.905948992799e-01
   11    -987.6640885576      2.00e-08  
   12    -987.6640885576      4.48e-09  Convergence criterion met
 ---------------------------------------
 SCF time:   CPU 714.66s  wall 89.00s 
 SCF   energy in the final basis set =     -987.6640885576
 Total energy in the final basis set =     -987.6640885576
 
 --------------------------------------------------------------
 
                    Orbital Energies (a.u.)
 --------------------------------------------------------------
 
 Alpha MOs
 -- Occupied --
-88.992 -19.221 -19.219 -19.160 -19.130 -14.378 -10.345 -10.331
-10.289 -10.273 -10.240 -10.189  -8.001  -5.872  -5.869  -5.861
 -1.111  -1.098  -1.031  -1.027  -0.926  -0.811  -0.774  -0.725
 -0.659  -0.607  -0.578  -0.564  -0.513  -0.496  -0.488  -0.471
 -0.459  -0.453  -0.431  -0.422  -0.410  -0.403  -0.388  -0.382
 -0.375  -0.363  -0.352  -0.334  -0.302  -0.280  -0.259  -0.249
 -0.240  -0.224
 -- Virtual --
 -0.102  -0.039  -0.004   0.000   0.021   0.036   0.069   0.078
  0.099   0.117   0.121   0.135   0.138   0.157   0.165   0.174
  0.212   0.213   0.248   0.291   0.298   0.331   0.338   0.348
  0.379   0.416   0.426   0.473   0.499   0.509   0.535   0.541
  0.551   0.560   0.584   0.606   0.625   0.633   0.640   0.657
  0.661   0.677   0.692   0.729   0.749   0.761   0.767   0.797
  0.810   0.816   0.824   0.829   0.847   0.865   0.876   0.879
  0.896   0.904   0.913   0.918   0.926   0.930   0.945   0.954
  0.974   0.982   1.023   1.034   1.068   1.080   1.091   1.107
  1.116   1.133   1.153   1.218   1.256   1.340   1.351   1.355
  1.379   1.401   1.403   1.425   1.489   1.500   1.545   1.591
  1.612   1.654   1.684   1.716   1.726   1.757   1.770   1.795
  1.811   1.825   1.828   1.832   1.849   1.882   1.903   1.919
  1.937   1.955   1.971   2.005   2.031   2.046   2.055   2.072
  2.100   2.135   2.163   2.205   2.261   2.288   2.311   2.382
  2.396   2.421   2.465   2.481   2.514   2.579   2.612   2.614
  2.698   2.706   2.711   2.728   2.850   2.937   2.951   3.020
  3.055   3.074   3.142   3.216   3.946   4.004   4.060   4.095
  4.164   4.189   4.329   4.337   4.434   4.462   4.623   4.695
 --------------------------------------------------------------
 
          Ground-State Mulliken Net Atomic Charges

     Atom                 Charge (a.u.)
  ----------------------------------------
      1 C                    -0.526217
      2 H                     0.238766
      3 H                     0.231420
      4 C                     0.247723
      5 O                    -0.367195
      6 S                     0.104361
      7 C                    -0.288954
      8 H                     0.204562
      9 H                     0.222979
     10 N                    -0.611062
     11 H                     0.362733
     12 C                     0.618000
     13 O                    -0.506054
     14 C                    -0.588209
     15 H                     0.182237
     16 H                     0.202456
     17 H                     0.185589
     18 C                     0.656890
     19 O                    -0.431791
     20 O                    -0.562891
     21 H                     0.424657
  ----------------------------------------
  Sum of atomic charges =    -0.000000

 -----------------------------------------------------------------
                    Cartesian Multipole Moments
 -----------------------------------------------------------------
    Charge (ESU x 10^10)
                -0.0000
    Dipole Moment (Debye)
         X       0.1815      Y       4.5040      Z       0.8285
       Tot       4.5831
    Quadrupole Moments (Debye-Ang)
        XX     -83.2122     XY      -6.8512     YY     -85.2454
        XZ       9.9076     YZ      -1.5638     ZZ     -76.2228
    Octopole Moments (Debye-Ang^2)
       XXX     -11.4343    XXY      59.8327    XYY      -0.8178
       YYY      -1.7235    XXZ      32.1705    XYZ     -14.8801
       YYZ      16.1673    XZZ      -7.3869    YZZ      -0.3367
       ZZZ      21.8358
    Hexadecapole Moments (Debye-Ang^3)
      XXXX   -3070.5259   XXXY     -98.5961   XXYY    -662.7004
      XYYY     -54.6339   YYYY    -658.2431   XXXZ     174.3921
      XXYZ      -5.6634   XYYZ      16.1195   YYYZ      61.1282
      XXZZ    -574.8147   XYZZ      -0.4441   YYZZ    -186.8937
      XZZZ      28.0553   YZZZ      70.8589   ZZZZ    -475.7394
 -----------------------------------------------------------------
 Calculating analytic gradient of the SCF energy
 Gradient of SCF Energy
            1           2           3           4           5           6
    1  -0.0018756  -0.0007012   0.0013135   0.0023069  -0.0008401   0.0002061
    2   0.0021976  -0.0006750  -0.0000461  -0.0024977   0.0000444   0.0009120
    3  -0.0010017   0.0005762  -0.0002498   0.0041723  -0.0037504   0.0020741
            7           8           9          10          11          12
    1   0.0007199  -0.0000655  -0.0009227  -0.0001370   0.0003292   0.0002223
    2   0.0008208   0.0004240  -0.0010785  -0.0000326  -0.0003676   0.0002217
    3  -0.0025985   0.0009309   0.0002097   0.0024903  -0.0015359  -0.0005679
           13          14          15          16          17          18
    1  -0.0001650  -0.0000228  -0.0002910  -0.0006597   0.0005955  -0.0000944
    2  -0.0001077   0.0003070  -0.0006770   0.0004218   0.0003042  -0.0015246
    3  -0.0005775   0.0007480   0.0001926  -0.0001829  -0.0003157  -0.0012725
           19          20          21
    1   0.0009119   0.0006519  -0.0014857
    2   0.0011670   0.0002945  -0.0001094
    3   0.0015653   0.0006358  -0.0015425
 Max gradient component =       4.172E-03
 RMS gradient           =       1.251E-03
 Gradient time:  CPU 174.24 s  wall 39.57 s
 Geometry Optimization Parameters
   NAtoms,    NIC,     NZ,  NCons,   NDum,   NFix, NCnnct, MaxDiis
       21     129       0       0       0       0       0       0

 Cartesian Hessian Update
 Hessian Updated using BFGS Update


** GEOMETRY OPTIMIZATION IN DELOCALIZED INTERNAL COORDINATES **
   Searching for a Minimum

   Optimization Cycle:   5

                       Coordinates (Angstroms)
     ATOM                X               Y               Z
      1  C        -2.1595696146    0.1211570825   -0.6845386410
      2  H        -1.7862246566   -0.3900102320   -1.5729268139
      3  H        -2.7877105532    0.9381280685   -1.0597308767
      4  C        -1.0142925852    0.7529446390    0.0637791859
      5  O        -0.8364187002    0.6371368573    1.2457040446
      6  S         0.0958615669    1.7808309926   -0.9806006420
      7  C         1.3550136037    0.4938437106   -1.1984707235
      8  H         0.8787518848   -0.4574390098   -1.4505195949
      9  H         1.9543250917    0.7828264359   -2.0624099385
     10  N         2.1623016146    0.3508349217   -0.0135650296
     11  H         1.9352615578    0.9049690270    0.7939330779
     12  C         3.1654112634   -0.5716703804   -0.0060970739
     13  O         3.4004116809   -1.2454404261   -0.9965008951
     14  C         3.9265723955   -0.6746023860    1.2892991004
     15  H         4.3951126996    0.2764428208    1.5498084566
     16  H         4.6966994528   -1.4327433141    1.1830595848
     17  H         3.2682753488   -0.9494168184    2.1161074883
     18  C        -2.9698348175   -0.8796223602    0.1204940664
     19  O        -3.1788718457   -1.9960364810   -0.2630151671
     20  O        -3.4739113201   -0.4395548752    1.2867602098
     21  H        -3.1023225087    0.4281307688    1.4969068941
   Point Group: c1    Number of degrees of freedom:    57


   Energy is   -987.664088558

 Hessian Updated using BFGS Update

 57 Hessian modes will be used to form the next step
  Hessian Eigenvalues:
     0.000878    0.003768    0.004552    0.008734    0.009192    0.009272
     0.011419    0.013762    0.014023    0.019192    0.021013    0.028481
     0.050801    0.060311    0.066614    0.073705    0.074672    0.075901
     0.100846    0.114222    0.134620    0.140422    0.159517    0.160001
     0.160022    0.160684    0.177305    0.210833    0.221254    0.222571
     0.240224    0.245501    0.249999    0.250000    0.253481    0.259851
     0.262823    0.269380    0.293309    0.315639    0.319868    0.324448
     0.324494    0.324640    0.325504    0.325802    0.326011    0.328132
     0.376289    0.388647    0.469314    0.529340    0.540376    0.568768
     0.938332    0.953947    1.066831

 Minimum Search - Taking Simple RFO Step
 Searching for Lamda that Minimizes Along All modes
 Value Taken    Lamda =  -0.00492556
 Calculated Step too Large.  Step scaled by  0.339072
 Step Taken.  Stepsize is  0.300000

                             Maximum     Tolerance    Cnvgd?
         Gradient           0.003601      0.000300      NO
         Displacement       0.105702      0.001200      NO
         Energy change     -0.001725      0.000001      NO


 New Cartesian Coordinates Obtained by Inverse Iteration

 Displacement from previous Coordinates is:  1.183678
 ----------------------------------------------------------------
             Standard Nuclear Orientation (Angstroms)
    I     Atom           X                Y                Z
 ----------------------------------------------------------------
    1      C      -2.1862082364     0.1577785559    -0.6769805626
    2      H      -1.9017745296    -0.3035035996    -1.6225878965
    3      H      -2.8295416760     1.0017109131    -0.9527670090
    4      C      -0.9757312510     0.7453994265    -0.0006813271
    5      O      -0.7141514245     0.6111786831     1.1625445291
    6      S       0.0918546063     1.7471267440    -1.1215814075
    7      C       1.3787802938     0.4804392273    -1.2682776373
    8      H       0.9315961586    -0.4775574495    -1.5445004365
    9      H       2.0110358349     0.7828372586    -2.1032170669
   10      N       2.1306983527     0.3508252311    -0.0458243895
   11      H       1.8516274382     0.8965227013     0.7501882577
   12      C       3.1414272186    -0.5639442739     0.0103129640
   13      O       3.4335644383    -1.2312399471    -0.9677621485
[...]
   21      H      -2.3851134870    -1.1607757303     0.9922924753
 ----------------------------------------------------------------
 Molecular Point Group                 C1    NOp =  1
 Largest Abelian Subgroup              C1    NOp =  1
 Nuclear Repulsion Energy =   804.1128965949 hartrees
 There are       50 alpha and       50 beta electrons
 Applying Cartesian multipole field
    Component          Value
    ---------          -----
     (2,0,0)        1.00000E-11
     (0,2,0)        2.00000E-11
     (0,0,2)       -3.00000E-11
 Nucleus-field energy     =     0.0000000187 hartrees
 Requested basis set is 6-31G(d)
 There are 67 shells and 202 basis functions
 A cutoff of  1.0D-11 yielded   1690 shell pairs
 There are     15826 function pairs
 Smallest overlap matrix eigenvalue = 3.39E-03
 Guess MOs from SCF MO coefficient file

 -----------------------------------------------------------------------
  General SCF calculation program by
  Eric Jon Sundstrom, Paul Horn, Yuezhi Mao, Dmitri Zuev, Alec White,
  David Stuck, Shaama M.S., Shane Yost, Joonho Lee, David Small,
  Daniel Levine, Susi Lehtola, Hugh Burton, Evgeny Epifanovsky
 -----------------------------------------------------------------------
 Exchange:  B97M-V      Correlation:  B97M-V
 Using SG-2 standard quadrature grid
 Nonlocal Correlation:  VV10 with C = 0.0100 and b = 6.00 and scale = 1.00000
 Grid used for NLC:  SG-1 standard quadrature
 using 8 threads for integral computing
 -------------------------------------------------------
 OpenMP Integral computing Module                
 Release: version 1.0, May 2013, Q-Chem Inc. Pittsburgh 
 -------------------------------------------------------
 -------------------------------------------------------
 OpenMP BLAS3 based DFT computing Module                
 Release: version 1.0, May 2013, Q-Chem Inc. Pittsburgh 
 -------------------------------------------------------
 -------------------------------------------------------
 OpenMP BLAS3 based DFT computing Module                
 Release: version 1.0, May 2013, Q-Chem Inc. Pittsburgh 
 -------------------------------------------------------
 -------------------------------------------------------
 OpenMP BLAS3 based DFT computing Module                
 Release: version 1.0, May 2013, Q-Chem Inc. Pittsburgh 
 -------------------------------------------------------
 Nonlocal correlation = 0.389592453291
 A restricted SCF calculation will be
 performed using DIIS
 SCF converges when DIIS error is below 1.0e-08
 ---------------------------------------
  Cycle       Energy         DIIS error
 ---------------------------------------
 Nonlocal correlation = 3.895926017674e-01
    1    -987.6977515484      1.78e-05  
 Nonlocal correlation = 3.895922846626e-01
    2    -987.6977543746      2.99e-06  
 Nonlocal correlation = 3.895926070340e-01
    3    -987.6977543482      3.88e-06  
 Nonlocal correlation = 3.895924569720e-01
    4    -987.6977544091      1.58e-06  
 Nonlocal correlation = 3.895924971162e-01
    5    -987.6977544193      3.84e-07  
 Nonlocal correlation = 3.895924993591e-01
    6    -987.6977544199      1.07e-07  
 Nonlocal correlation = 3.895924900469e-01
    7    -987.6977544199      4.46e-08  
 Nonlocal correlation = 3.895924934439e-01
    8    -987.6977544199      2.41e-08  
    9    -987.6977544199      4.45e-09  Convergence criterion met
 ---------------------------------------
 SCF time:   CPU 535.75s  wall 67.00s 
 SCF   energy in the final basis set =     -987.6977544199
 Total energy in the final basis set =     -987.6977544199
 
 --------------------------------------------------------------
 
                    Orbital Energies (a.u.)
 --------------------------------------------------------------
 
 Alpha MOs
 -- Occupied --
-89.003 -19.207 -19.203 -19.150 -19.143 -14.388 -10.334 -10.325
-10.299 -10.271 -10.231 -10.199  -8.012  -5.883  -5.879  -5.874
 -1.101  -1.079  -1.043  -1.016  -0.937  -0.811  -0.773  -0.736
 -0.670  -0.594  -0.584  -0.562  -0.503  -0.501  -0.482  -0.475
 -0.459  -0.443  -0.428  -0.417  -0.404  -0.401  -0.390  -0.382
 -0.381  -0.370  -0.352  -0.338  -0.290  -0.277  -0.272  -0.252
 -0.246  -0.236
 -- Virtual --
 -0.081  -0.034  -0.016  -0.001   0.043   0.064   0.077   0.095
  0.105   0.110   0.125   0.137   0.140   0.153   0.171   0.182
  0.198   0.224   0.240   0.283   0.317   0.335   0.344   0.349
  0.368   0.383   0.423   0.493   0.504   0.529   0.535   0.545
  0.564   0.570   0.584   0.596   0.609   0.626   0.638   0.650
  0.669   0.678   0.684   0.718   0.725   0.746   0.765   0.790
  0.803   0.811   0.820   0.842   0.851   0.861   0.869   0.876
  0.882   0.906   0.909   0.912   0.925   0.944   0.959   0.973
  0.990   1.018   1.031   1.058   1.065   1.096   1.109   1.116
  1.131   1.151   1.183   1.232   1.284   1.327   1.357   1.370
  1.383   1.398   1.412   1.444   1.508   1.521   1.534   1.544
  1.631   1.673   1.716   1.720   1.735   1.753   1.767   1.791
  1.805   1.820   1.821   1.837   1.854   1.866   1.883   1.914
  1.924   1.944   1.988   2.003   2.044   2.049   2.077   2.092
  2.113   2.121   2.164   2.215   2.242   2.301   2.319   2.371
  2.380   2.392   2.483   2.495   2.554   2.572   2.583   2.609
  2.677   2.708   2.709   2.748   2.858   2.936   2.950   3.023
  3.052   3.095   3.165   3.191   4.000   4.009   4.085   4.104
  4.161   4.207   4.320   4.339   4.419   4.462   4.607   4.665
 --------------------------------------------------------------
 
          Ground-State Mulliken Net Atomic Charges

     Atom                 Charge (a.u.)
  ----------------------------------------
      1 C                    -0.522172
      2 H                     0.222256
      3 H                     0.236237
      4 C                     0.268852
      5 O                    -0.491172
      6 S                     0.197167
      7 C                    -0.311768
      8 H                     0.216719
      9 H                     0.233590
     10 N                    -0.590361
     11 H                     0.361896
     12 C                     0.613934
     13 O                    -0.490388
     14 C                    -0.584415
     15 H                     0.172210
     16 H                     0.205050
     17 H                     0.196039
     18 C                     0.644802
     19 O                    -0.441822
     20 O                    -0.587141
     21 H                     0.450487
  ----------------------------------------
  Sum of atomic charges =    -0.000000

 -----------------------------------------------------------------
                    Cartesian Multipole Moments
 -----------------------------------------------------------------
    Charge (ESU x 10^10)
                -0.0000
    Dipole Moment (Debye)
         X       3.2638      Y      -0.8109      Z       2.2125
       Tot       4.0256
    Quadrupole Moments (Debye-Ang)
        XX    -106.0059     XY      -7.2404     YY     -75.4471
        XZ       5.8903     YZ       4.2711     ZZ     -73.6929
    Octopole Moments (Debye-Ang^2)
       XXX      85.1389    XXY     -13.4009    XYY      -9.2141
       YYY       2.4320    XXZ      63.1385    XYZ       3.4713
       YYZ      22.9356    XZZ      -1.8580    YZZ      -3.7682
       ZZZ      67.8244
    Hexadecapole Moments (Debye-Ang^3)
      XXXX   -4049.3556   XXXY     -57.7880   XXYY    -614.7550
      XYYY     -20.1804   YYYY    -279.3185   XXXZ      69.2825
      XXYZ      55.2162   XYYZ       0.3316   YYYZ      34.0181
      XXZZ    -640.7296   XYZZ     -17.6175   YYZZ    -130.1366
      XZZZ     -27.9231   YZZZ      34.0935   ZZZZ    -534.3372
 -----------------------------------------------------------------
 Calculating analytic gradient of the SCF energy
 Gradient of SCF Energy
            1           2           3           4           5           6
    1  -0.0000499   0.0000078   0.0000181  -0.0000292   0.0000147   0.0000252
    2   0.0000110   0.0000095   0.0000139   0.0000712  -0.0000369  -0.0000336
    3  -0.0000090  -0.0000128  -0.0000102  -0.0000780   0.0000425   0.0000256
            7           8           9          10          11          12
    1  -0.0000010  -0.0000145   0.0000246   0.0000194   0.0000014  -0.0000191
    2  -0.0000156   0.0000030  -0.0000059  -0.0000152   0.0000231  -0.0000410
    3  -0.0000200  -0.0000008   0.0000035   0.0000033   0.0000206   0.0000685
           13          14          15          16          17          18
    1   0.0000070  -0.0000139  -0.0000065  -0.0000038  -0.0000033   0.0001290
    2  -0.0000204   0.0000178  -0.0000155  -0.0000151  -0.0000223  -0.0000528
    3  -0.0000110  -0.0000028   0.0000205   0.0000308   0.0000173   0.0000078
           19          20          21
    1  -0.0000601  -0.0000446  -0.0000028
    2   0.0000415   0.0000760   0.0000076
    3  -0.0000498  -0.0000432  -0.0000031
 Max gradient component =       1.290E-04
 RMS gradient           =       3.383E-05
 Gradient time:  CPU 174.26 s  wall 39.47 s
 Geometry Optimization Parameters
   NAtoms,    NIC,     NZ,  NCons,   NDum,   NFix, NCnnct, MaxDiis
       21     129       0       0       0       0       0       0

 Cartesian Hessian Update
 Hessian Updated using BFGS Update


** GEOMETRY OPTIMIZATION IN DELOCALIZED INTERNAL COORDINATES **
   Searching for a Minimum

   Optimization Cycle:  36

                       Coordinates (Angstroms)
     ATOM                X               Y               Z
      1  C        -2.1020795017    0.8324430503   -0.2663353602
      2  H        -2.2361134219    1.4618876232   -1.1440410185
      3  H        -1.9665121943    1.4996356070    0.5942929902
      4  C        -0.8639552650   -0.0160674055   -0.3522413648
      5  O        -0.6512424001   -0.9321064204    0.4374326658
      6  S         0.2551487923    0.4185667203   -1.6249497019
      7  C         1.5148417574   -0.8934190168   -1.2968190866
      8  H         0.9963036834   -1.8477069271   -1.3346623863
      9  H         2.2272402818   -0.8075152161   -2.1127959886
     10  N         2.1964824776   -0.7566664006   -0.0602555969
     11  H         1.6774934415   -1.0206706277    0.7629408157
     12  C         3.2374561202    0.1358815388    0.0533059496
     13  O         3.7006473022    0.6994964504   -0.9206310122
     14  C         3.7702112287    0.2968435720    1.4508289125
     15  H         2.9703769730    0.4902000473    2.1704929080
     16  H         4.4786061841    1.1206820182    1.4688729885
     17  H         4.2813230013   -0.6152078024    1.7690783773
     18  C        -3.4058390156    0.0690626611   -0.0229953970
     19  O        -4.4438607289    0.4434455637   -0.4964382632
     20  O        -3.3265736701   -0.9873002640    0.7901038058
     21  H        -2.3851134870   -1.1607757303    0.9922924753
   Point Group: c1    Number of degrees of freedom:    57


   Energy is   -987.697754420

 Hessian Updated using BFGS Update

 57 Hessian modes will be used to form the next step
  Hessian Eigenvalues:
     0.004526    0.005095    0.005969    0.009194    0.009279    0.012706
     0.021478    0.028727    0.034145    0.036393    0.037326    0.048438
     0.056005    0.069040    0.070212    0.074642    0.075635    0.076480
     0.097650    0.118679    0.137786    0.143182    0.160126    0.160656
     0.164719    0.168683    0.182549    0.201399    0.224151    0.236520
     0.239310    0.247352    0.253701    0.260930    0.266711    0.275449
     0.296776    0.303875    0.310455    0.324295    0.325326    0.325418
     0.326253    0.327121    0.328841    0.333645    0.352635    0.424657
     0.446574    0.482663    0.537789    0.562247    0.583623    0.754848
     0.915911    0.955827    0.980733

 Minimum Search - Taking Simple RFO Step
 Searching for Lamda that Minimizes Along All modes
 Value Taken    Lamda =   0.00000000
 Step Taken.  Stepsize is  0.003838

                             Maximum     Tolerance    Cnvgd?
         Gradient           0.000058      0.000300     YES
         Displacement       0.001450      0.001200      NO
         Energy change     -0.000000      0.000001     YES

 Final energy is   -987.697754419921     


 ******************************
 **  OPTIMIZATION CONVERGED  **
 ******************************

                       Coordinates (Angstroms)
     ATOM                X               Y               Z
      1  C        -2.1020795017    0.8324430503   -0.2663353602
      2  H        -2.2361134219    1.4618876232   -1.1440410185
      3  H        -1.9665121943    1.4996356070    0.5942929902
      4  C        -0.8639552650   -0.0160674055   -0.3522413648
      5  O        -0.6512424001   -0.9321064204    0.4374326658
      6  S         0.2551487923    0.4185667203   -1.6249497019
      7  C         1.5148417574   -0.8934190168   -1.2968190866
      8  H         0.9963036834   -1.8477069271   -1.3346623863
      9  H         2.2272402818   -0.8075152161   -2.1127959886
     10  N         2.1964824776   -0.7566664006   -0.0602555969
     11  H         1.6774934415   -1.0206706277    0.7629408157
     12  C         3.2374561202    0.1358815388    0.0533059496
     13  O         3.7006473022    0.6994964504   -0.9206310122
     14  C         3.7702112287    0.2968435720    1.4508289125
     15  H         2.9703769730    0.4902000473    2.1704929080
     16  H         4.4786061841    1.1206820182    1.4688729885
     17  H         4.2813230013   -0.6152078024    1.7690783773
     18  C        -3.4058390156    0.0690626611   -0.0229953970
     19  O        -4.4438607289    0.4434455637   -0.4964382632
     20  O        -3.3265736701   -0.9873002640    0.7901038058
     21  H        -2.3851134870   -1.1607757303    0.9922924753

Z-matrix Print:
$molecule
0 1
S 
C  1 1.749596
O  2 1.227990 1 122.840169
C  2 1.503430 1 115.348470 3 178.667108 0
H  4 1.088362 2 112.441827 1 12.662111 0
H  4 1.097363 2 106.631631 1 -104.575138 0
C  4 1.530279 2 115.415097 1 137.396445 0
O  7 1.200750 4 121.216823 2 -146.339445 0
O  7 1.335409 4 116.158925 2 36.730686 0
H  9 0.978428 7 108.855826 4 -8.086636 0
C  1 1.848189 2 97.496634 3 1.934194 0
H  11 1.086605 1 104.916674 2 173.388110 0
H  11 1.086729 1 106.975334 2 55.572401 0
N  11 1.418600 1 114.445629 2 -66.715630 0
H  14 1.008316 11 116.045600 1 75.722341 0
C  14 1.375923 11 119.868319 1 -80.060222 0
O  16 1.216865 14 121.491783 11 -9.042873 0
C  16 1.504263 14 114.458750 11 173.401739 0
H  18 1.086673 16 109.112631 14 -171.571278 0
H  18 1.092866 16 110.296477 14 68.916089 0
H  18 1.093178 16 111.802511 14 -50.440923 0
$end

 
 --------------------------------------------------------------
 
                    Orbital Energies (a.u.)
 --------------------------------------------------------------
 
 Alpha MOs
 -- Occupied --
-89.003 -19.207 -19.203 -19.150 -19.143 -14.388 -10.334 -10.325
-10.299 -10.271 -10.231 -10.199  -8.012  -5.883  -5.879  -5.874
 -1.101  -1.079  -1.043  -1.016  -0.937  -0.811  -0.773  -0.736
 -0.670  -0.594  -0.584  -0.562  -0.503  -0.501  -0.482  -0.475
 -0.459  -0.443  -0.428  -0.417  -0.404  -0.401  -0.390  -0.382
 -0.381  -0.370  -0.352  -0.338  -0.290  -0.277  -0.272  -0.252
 -0.246  -0.236
 -- Virtual --
 -0.081  -0.034  -0.016  -0.001   0.043   0.064   0.077   0.095
  0.105   0.110   0.125   0.137   0.140   0.153   0.171   0.182
  0.198   0.224   0.240   0.283   0.317   0.335   0.344   0.349
  0.368   0.383   0.423   0.493   0.504   0.529   0.535   0.545
  0.564   0.570   0.584   0.596   0.609   0.626   0.638   0.650
  0.669   0.678   0.684   0.718   0.725   0.746   0.765   0.790
  0.803   0.811   0.820   0.842   0.851   0.861   0.869   0.876
  0.882   0.906   0.909   0.912   0.925   0.944   0.959   0.973
  0.990   1.018   1.031   1.058   1.065   1.096   1.109   1.116
  1.131   1.151   1.183   1.232   1.284   1.327   1.357   1.370
  1.383   1.398   1.412   1.444   1.508   1.521   1.534   1.544
  1.631   1.673   1.716   1.720   1.735   1.753   1.767   1.791
  1.805   1.820   1.821   1.837   1.854   1.866   1.883   1.914
  1.924   1.944   1.988   2.003   2.044   2.049   2.077   2.092
  2.113   2.121   2.164   2.215   2.242   2.301   2.319   2.371
  2.380   2.392   2.483   2.495   2.554   2.572   2.583   2.609
  2.677   2.708   2.709   2.748   2.858   2.936   2.950   3.023
  3.052   3.095   3.165   3.191   4.000   4.009   4.085   4.104
  4.161   4.207   4.320   4.339   4.419   4.462   4.607   4.665
 --------------------------------------------------------------
 
          Ground-State Mulliken Net Atomic Charges

     Atom                 Charge (a.u.)
  ----------------------------------------
      1 C                    -0.522172
      2 H                     0.222256
      3 H                     0.236237
      4 C                     0.268852
      5 O                    -0.491172
      6 S                     0.197167
      7 C                    -0.311768
      8 H                     0.216719
      9 H                     0.233590
     10 N                    -0.590361
     11 H                     0.361896
     12 C                     0.613934
     13 O                    -0.490388
     14 C                    -0.584415
     15 H                     0.172210
     16 H                     0.205050
     17 H                     0.196039
     18 C                     0.644802
     19 O                    -0.441822
     20 O                    -0.587141
     21 H                     0.450487
  ----------------------------------------
  Sum of atomic charges =    -0.000000

 -----------------------------------------------------------------
                    Cartesian Multipole Moments
 -----------------------------------------------------------------
    Charge (ESU x 10^10)
                -0.0000
    Dipole Moment (Debye)
         X       3.2638      Y      -0.8109      Z       2.2125
       Tot       4.0256
    Quadrupole Moments (Debye-Ang)
        XX    -106.0059     XY      -7.2404     YY     -75.4471
        XZ       5.8903     YZ       4.2711     ZZ     -73.6929
    Octopole Moments (Debye-Ang^2)
       XXX      85.1389    XXY     -13.4009    XYY      -9.2141
       YYY       2.4320    XXZ      63.1385    XYZ       3.4713
       YYZ      22.9356    XZZ      -1.8580    YZZ      -3.7682
       ZZZ      67.8244
    Hexadecapole Moments (Debye-Ang^3)
      XXXX   -4049.3556   XXXY     -57.7880   XXYY    -614.7550
      XYYY     -20.1804   YYYY    -279.3185   XXXZ      69.2825
      XXYZ      55.2162   XYYZ       0.3316   YYYZ      34.0181
      XXZZ    -640.7296   XYZZ     -17.6175   YYZZ    -130.1366
      XZZZ     -27.9231   YZZZ      34.0935   ZZZZ    -534.3372
 -----------------------------------------------------------------
Archival summary:
1\1\cub-0-22.local\OPT\ProcedureUnspecified\6-31G*\14169\c295_kri\ThuNov103:09:372018ThuNov103:09:372018\0\\#,OPT,ProcedureUnspecified,6-31G*,\\0,1\S\C,1,1.7496\O,2,1.22799,1,122.84\C,2,1.50343,1,115.348,3,178.667,0\H,4,1.08836,2,112.442,1,12.6621,0\H,4,1.09736,2,106.632,1,-104.575,0\C,4,1.53028,2,115.415,1,137.396,0\O,7,1.20075,4,121.217,2,-146.339,0\O,7,1.33541,4,116.159,2,36.7307,0\H,9,0.978428,7,108.856,4,-8.08664,0\C,1,1.84819,2,97.4966,3,1.93419,0\H,11,1.0866,1,104.917,2,173.388,0\H,11,1.08673,1,106.975,2,55.5724,0\N,11,1.4186,1,114.446,2,-66.7156,0\H,14,1.00832,11,116.046,1,75.7223,0\C,14,1.37592,11,119.868,1,-80.0602,0\O,16,1.21687,14,121.492,11,-9.04287,0\C,16,1.50426,14,114.459,11,173.402,0\H,18,1.08667,16,109.113,14,-171.571,0\H,18,1.09287,16,110.296,14,68.9161,0\H,18,1.09318,16,111.803,14,-50.4409,0\\\@

 Total job time:  4681.28s(wall), 32453.12s(cpu) 
 Thu Nov  1 03:09:37 2018

        *************************************************************
        *                                                           *
        *  Thank you very much for using Q-Chem.  Have a nice day.  *
        *                                                           *
        *************************************************************


