
Running Job 1 of 1 serine_opt.in
qchem serine_opt.in_9799.0 /scr/c295_krishna/137192/qchem9799/ 1
/usr/software/qchem_511/exe/qcprog.exe_s serine_opt.in_9799.0 /scr/c295_krishna/137192/qchem9799/
Check license passed

                  Welcome to Q-Chem
     A Quantum Leap Into The Future Of Chemistry


 Q-Chem 5.1, Q-Chem, Inc., Pleasanton, CA (2018)

 Yihan Shao,  Zhengting Gan,  E. Epifanovsky,  A. T. B. Gilbert,  M. Wormit,  
 J. Kussmann,  A. W. Lange,  A. Behn,  Jia Deng,  Xintian Feng,  D. Ghosh,  
 M. Goldey,  P. R. Horn,  L. D. Jacobson,  I. Kaliman,  T. Kus,  A. Landau,  
 Jie Liu,  E. I. Proynov,  R. M. Richard,  R. P. Steele,  E. J. Sundstrom,  
 H. L. Woodcock III,  P. M. Zimmerman,  D. Zuev,  B. Albrecht,  E. Alguire,  
 S. A. Baeppler,  D. Barton,  Z. Benda,  Y. A. Bernard,  E. J. Berquist,  
 K. B. Bravaya,  H. Burton,  D. Casanova,  Chun-Min Chang,  Yunqing Chen,  
 A. Chien,  K. D. Closser,  M. P. Coons,  S. Coriani,  S. Dasgupta,  
 A. L. Dempwolff,  M. Diedenhofen,  Hainam Do,  R. G. Edgar,  Po-Tung Fang,  
 S. Faraji,  S. Fatehi,  Qingguo Feng,  K. D. Fenk,  J. Fosso-Tande,  
 Qinghui Ge,  A. Ghysels,  G. Gidofalvi,  J. Gomes,  J. Gonthier,  A. Gunina,  
 D. Hait,  M. W. D. Hanson-Heine,  P. H. P. Harbach,  A. W. Hauser,  
 J. E. Herr,  E. G. Hohenstein,  Z. C. Holden,  Kerwin Hui,  B. C. Huynh,  
 T.-C. Jagau,  Hyunjun Ji,  B. Kaduk,  K. Khistyaev,  Jaehoon Kim,  
 P. Klunzinger,  K. Koh,  D. Kosenkov,  L. Koulias,  T. Kowalczyk,  
 C. M. Krauter,  A. Kunitsa,  Ka Un Lao,  A. Laurent,  K. V. Lawler,  
 Joonho Lee,  D. Lefrancois,  S. Lehtola,  D. S. Levine,  Yi-Pei Li,  
 You-Sheng Lin,  Fenglai Liu,  E. Livshits,  A. Luenser,  P. Manohar,  
 E. Mansoor,  S. F. Manzer,  Shan-Ping Mao,  Yuezhi Mao,  N. Mardirossian,  
 A. V. Marenich,  T. Markovich,  L. A. Martinez-Martinez,  S. A. Maurer,  
 N. J. Mayhall,  S. C. McKenzie,  J.-M. Mewes,  A. F. Morrison,  
 J. W. Mullinax,  K. Nanda,  T. S. Nguyen-Beck,  R. Olivares-Amaya,  
 J. A. Parkhill,  T. M. Perrine,  F. Plasser,  P. Pokhilko,  S. Prager,  
 A. Prociuk,  E. Ramos,  D. R. Rehn,  F. Rob,  M. Schneider,  N. Sergueev,  
 S. M. Sharada,  S. Sharma,  D. W. Small,  T. Stauch,  T. Stein,  
 Yu-Chuan Su,  A. J. W. Thom,  A. Tkatchenko,  T. Tsuchimochi,  N. M. Tubman,  
 L. Vogt,  M. L. Vidal,  O. Vydrov,  M. A. Watson,  J. Wenzel,  
 M. de Wergifosse,  T. A. Wesolowski,  A. White,  J. Witte,  A. Yamada,  
 Jun Yang,  K. Yao,  S. Yeganeh,  S. R. Yost,  Zhi-Qiang You,  A. Zech,  
 Igor Ying Zhang,  Xing Zhang,  Yan Zhao,  Ying Zhu,  B. R. Brooks,  
 G. K. L. Chan,  C. J. Cramer,  M. S. Gordon,  W. J. Hehre,  A. Klamt,  
 M. W. Schmidt,  C. D. Sherrill,  D. G. Truhlar,  A. Aspuru-Guzik,  R. Baer,  
 A. T. Bell,  N. A. Besley,  Jeng-Da Chai,  A. E. DePrince, III,  
 R. A. DiStasio Jr.,  A. Dreuw,  B. D. Dunietz,  T. R. Furlani,  
 Chao-Ping Hsu,  Yousung Jung,  Jing Kong,  D. S. Lambrecht,  WanZhen Liang,  
 C. Ochsenfeld,  V. A. Rassolov,  L. V. Slipchenko,  J. E. Subotnik,  
 T. Van Voorhis,  J. M. Herbert,  A. I. Krylov,  P. M. W. Gill,  M. Head-Gordon

 Contributors to earlier versions of Q-Chem not listed above: 
 R. D. Adamson,  B. Austin,  J. Baker,  G. J. O. Beran,  K. Brandhorst,  
 S. T. Brown,  E. F. C. Byrd,  A. K. Chakraborty,  C.-L. Cheng,  
 Siu Hung Chien,  D. M. Chipman,  D. L. Crittenden,  H. Dachsel,  
 R. J. Doerksen,  A. D. Dutoi,  L. Fusti-Molnar,  W. A. Goddard III,  
 A. Golubeva-Zadorozhnaya,  S. R. Gwaltney,  G. Hawkins,  A. Heyden,  
 S. Hirata,  G. Kedziora,  F. J. Keil,  C. Kelley,  Jihan Kim,  R. A. King,  
 R. Z. Khaliullin,  P. P. Korambath,  W. Kurlancheek,  A. M. Lee,  M. S. Lee,  
 S. V. Levchenko,  Ching Yeh Lin,  D. Liotard,  R. C. Lochan,  I. Lotan,  
 P. E. Maslen,  N. Nair,  D. P. O'Neill,  D. Neuhauser,  E. Neuscamman,  
 C. M. Oana,  R. Olson,  B. Peters,  R. Peverati,  P. A. Pieniazek,  
 Y. M. Rhee,  J. Ritchie,  M. A. Rohrdanz,  E. Rosta,  N. J. Russ,  
 H. F. Schaefer III,  N. E. Schultz,  N. Shenvi,  A. C. Simmonett,  A. Sodt,  
 D. Stuck,  K. S. Thanthiriwatte,  V. Vanovschi,  Tao Wang,  A. Warshel,  
 C. F. Williams,  Q. Wu,  X. Xu,  W. Zhang

 Please cite Q-Chem as follows:
 Y. Shao et al., Mol. Phys. 113, 184-215 (2015)
 DOI: 10.1080/00268976.2014.952696

 Q-Chem 5.1.1 for Intel X86 EM64T Linux

 Parts of Q-Chem use Armadillo 8.300.2 (Tropical Shenanigans).
 http://arma.sourceforge.net/

 Q-Chem begins on Thu Nov  1 00:15:06 2018  

Host: cub-0-17.local
0

     Scratch files written to /scr/c295_krishna/137192/qchem9799//
 Aug318 |scratch|qcdevops|jenkins|workspace|build_RNUM -1
Processing $rem in /usr/software/qchem_511/config/preferences.
 MEM_TOTAL  2000 
Input Ideriv = 2
Curr. Ideriv = -1
Max.  Ideriv = 2

Checking the input file for inconsistencies... 	...done.

--------------------------------------------------------------
User input:
--------------------------------------------------------------
$comment
serine geom opt with no constraints.
$end

$molecule
0  1
C         -6.71375        2.83702        0.25998
C         -5.39735        3.48549       -0.09496
C         -4.15105        2.57629        0.05045
H         -5.29186        4.35988        0.58351
H         -5.44863        3.86086       -1.14017
C         -2.88058        3.43896       -0.14275
C         -1.57266        2.67240        0.07893
H         -2.90476        4.27114        0.59565
H         -2.87660        3.87944       -1.16430
O         -7.84719        3.55980        0.14079
H         -8.71100        3.18652        0.36675
O         -6.77019        1.68886        0.67594
N         -4.18556        1.49198       -0.94112
H         -4.13637        2.15374        1.08091
H         -3.41741        0.81205       -0.74651
H         -5.06935        0.94326       -0.86693
O         -0.49511        3.55750       -0.04976
H         -1.46865        1.86605       -0.67805
H         -1.57721        2.23894        1.10414
H          0.32379        3.02187        0.11643


$end

$rem
JOBTYPE           opt
EXCHANGE        b3lyp
BASIS             6-31G
--------------------------------------------------------------
 ----------------------------------------------------------------
             Standard Nuclear Orientation (Angstroms)
    I     Atom           X                Y                Z
 ----------------------------------------------------------------
    1      C       2.3450398832     0.1534253552    -0.1167638084
    2      C       0.9853093992     0.7013752332     0.2441913782
    3      C      -0.2120851840    -0.2208207711    -0.0976465071
    4      H       0.8802845223     1.6571433808    -0.3139166547
    5      H       0.9640003758     0.9300158975     1.3319714991
    6      C      -1.5261830870     0.5630880623     0.1352771545
    7      C      -2.7868854644    -0.2094652835    -0.2662223171
    8      H      -1.4968216080     1.4897817765    -0.4801247049
    9      H      -1.6040642810     0.8575685237     1.2052391402
   10      O       3.4390709400     0.8908930641     0.1670333784
   11      H       4.3287489399     0.5820787313    -0.0558351041
   12      O       2.4720158359    -0.9235331613    -0.6811369491
   13      N      -0.1860809991    -1.4301098921     0.7372629403
   14      H      -0.1530872280    -0.4969560050    -1.1750881019
   15      H      -0.9133815726    -2.1023009521     0.4064679371
   16      H       0.7226373262    -1.9328968506     0.6417703322
   17      O      -3.9059543401     0.6121349183    -0.0825511751
   18      H      -2.8979795836    -1.1158795949     0.3663188403
   19      H      -2.7085308966    -0.4964715070    -1.3388134822
   20      H      -4.6914717702     0.0771116994    -0.3686077173
 ----------------------------------------------------------------
 Molecular Point Group                 C1    NOp =  1
 Largest Abelian Subgroup              C1    NOp =  1
 Nuclear Repulsion Energy =   464.0051129991 hartrees
 There are       36 alpha and       36 beta electrons
 Requested basis set is 6-31G
 There are 49 shells and 103 basis functions

 Total QAlloc Memory Limit   2000 MB
 Mega-Array Size       188 MB
 MEM_STATIC part       192 MB
 A cutoff of  1.0D-11 yielded   1043 shell pairs
 There are      4808 function pairs
 
 -------------------------------------------------------
 OpenMP Integral Computing Module                       
 Release: version 1.0, May 2013, Q-Chem Inc. Pittsburgh 
 -------------------------------------------------------
 Integral Job Info:
 Integral job number is                      11
 Integral operator is                         1
 short-range coefficients                     0
 long-range coefficients              100000000
 Omega coefficients                           0
 if combine SR and LR in K                    0
 Integral screening is                        0
 Integral computing path is                   2
 max size of driver memory is            800000
 size of driver memory is                 45569
 size of scratch memory is              2040132
 max col of scratch BK array                289
 max len of scratch array in speh3           22
 max len of scratch index in speh4            8
 max int batch size is                      520
 min int batch size is                       52
 fixed nKL is                                52
 max L of basis functions is                  1
 order of int derivative is                   0
 number of shells is                         49
 number of basis is                         103
 number of cartesian basis is               103
 number of contracted shell pairs          1043
 number of primitive shell pairs           4453
 maxK2 (contraction) of shell pair           36
 max number of K2 of shell pair               1
 max number of CS2 of shell pair            181
 max number of PS2 of shell pair            804
 mem total for path MDJ                  521150
 -------------------------------------------------------
 Smallest overlap matrix eigenvalue = 3.42E-03

 Scale SEOQF with 1.000000e-01/1.000000e-01/1.000000e+00

 Standard Electronic Orientation quadrupole field applied
 Nucleus-field energy     =     0.0000000015 hartrees
 Guess from superposition of atomic densities
 Warning:  Energy on first SCF cycle will be non-variational
 SAD guess density has 72.000000 electrons

 -----------------------------------------------------------------------
  General SCF calculation program by
  Eric Jon Sundstrom, Paul Horn, Yuezhi Mao, Dmitri Zuev, Alec White,
  David Stuck, Shaama M.S., Shane Yost, Joonho Lee, David Small,
  Daniel Levine, Susi Lehtola, Hugh Burton, Evgeny Epifanovsky
 -----------------------------------------------------------------------
 Exchange:     0.2000 Hartree-Fock + 0.0800 Slater + 0.7200 B88
 Correlation:  0.1900 VWN1RPA + 0.8100 LYP
 Using SG-1 standard quadrature grid
 using 8 threads for integral computing
 -------------------------------------------------------
 OpenMP Integral computing Module                
 Release: version 1.0, May 2013, Q-Chem Inc. Pittsburgh 
 -------------------------------------------------------
 -------------------------------------------------------
 OpenMP BLAS3 based DFT computing Module                
 Release: version 1.0, May 2013, Q-Chem Inc. Pittsburgh 
 -------------------------------------------------------
 A restricted SCF calculation will be
 performed using DIIS
 SCF converges when DIIS error is below 1.0e-08
 ---------------------------------------
  Cycle       Energy         DIIS error
 ---------------------------------------
    1    -479.0030612634      9.37e-02  
    2    -477.1549107585      1.47e-02  
    3    -476.7804964824      2.40e-02  
    4    -477.3717443117      5.58e-03  
    5    -477.4050635262      9.95e-04  
    6    -477.4058455752      4.17e-04  
    7    -477.4060652125      7.35e-05  
    8    -477.4060713038      2.26e-05  
    9    -477.4060718438      5.53e-06  
   10    -477.4060718789      1.22e-06  
   11    -477.4060718809      3.15e-07  
   12    -477.4060718810      1.36e-07  
   13    -477.4060718810      2.46e-08  
   14    -477.4060718810      1.11e-08  
   15    -477.4060718810      1.08e-09  Convergence criterion met
 ---------------------------------------
 SCF time:   CPU 26.32s  wall 3.00s 
 SCF   energy in the final basis set =     -477.4060718810
 Total energy in the final basis set =     -477.4060718810
 
 --------------------------------------------------------------
 
                    Orbital Energies (a.u.)
 --------------------------------------------------------------
 
 Alpha MOs
 -- Occupied --
-19.195 -19.144 -19.141 -14.308 -10.338 -10.232 -10.224 -10.208
-10.180  -1.127  -1.034  -1.033  -0.889  -0.780  -0.751  -0.671
 -0.622  -0.572  -0.517  -0.508  -0.498  -0.482  -0.468  -0.459
 -0.442  -0.410  -0.381  -0.376  -0.365  -0.353  -0.352  -0.322
 -0.317  -0.278  -0.264  -0.223
 -- Virtual --
 -0.005   0.054   0.061   0.071   0.108   0.123   0.137   0.153
  0.161   0.170   0.183   0.202   0.207   0.221   0.235   0.260
  0.266   0.277   0.340   0.382   0.530   0.541   0.564   0.582
  0.604   0.611   0.625   0.635   0.667   0.671   0.705   0.724
  0.731   0.768   0.791   0.809   0.820   0.836   0.860   0.882
  0.901   0.911   0.924   0.929   0.936   0.953   0.965   0.979
  0.993   0.994   1.033   1.054   1.063   1.080   1.134   1.183
  1.203   1.295   1.332   1.346   1.391   1.532   1.624   1.779
  1.805   1.889   1.992
 --------------------------------------------------------------
 
          Ground-State Mulliken Net Atomic Charges

     Atom                 Charge (a.u.)
  ----------------------------------------
      1 C                     0.495855
      2 C                    -0.296922
      3 C                     0.015098
      4 H                     0.173286
      5 H                     0.187835
      6 C                    -0.209745
      7 C                    -0.035531
      8 H                     0.132734
      9 H                     0.152276
     10 O                    -0.572485
     11 H                     0.398276
     12 O                    -0.423509
     13 N                    -0.689546
     14 H                     0.122498
     15 H                     0.267785
     16 H                     0.291821
     17 O                    -0.600719
     18 H                     0.122535
     19 H                     0.111535
     20 H                     0.356923
  ----------------------------------------
  Sum of atomic charges =    -0.000000

 -----------------------------------------------------------------
                    Cartesian Multipole Moments
 -----------------------------------------------------------------
    Charge (ESU x 10^10)
                 0.0000
    Dipole Moment (Debye)
         X       0.3630      Y      -0.7593      Z      -1.3299
       Tot       1.5738
    Quadrupole Moments (Debye-Ang)
        XX     -41.8764     XY       9.9250     YY     -56.4503
        XZ       4.8844     YZ      -0.8201     ZZ     -58.1037
    Octopole Moments (Debye-Ang^2)
       XXX      31.8309    XXY     -24.1504    XYY      -2.5806
       YYY     -11.0252    XXZ     -14.5675    XYZ      -8.5366
       YYZ      -0.3536    XZZ       0.5886    YZZ       5.7185
       ZZZ      -4.9012
    Hexadecapole Moments (Debye-Ang^3)
      XXXX   -1238.5578   XXXY     145.2873   XXYY    -413.6728
      XYYY       1.7902   YYYY    -262.0177   XXXZ      53.6244
      XXYZ     -21.6250   XYYZ       1.9897   YYYZ      -5.4958
      XXZZ    -338.2350   XYZZ       0.6426   YYZZ     -73.4318
      XZZZ       2.4468   YZZZ       8.3576   ZZZZ    -130.1621
 -----------------------------------------------------------------
 Calculating analytic gradient of the SCF energy
 Gradient of SCF Energy
            1           2           3           4           5           6
    1   0.0033958  -0.0035783  -0.0029097   0.0011632   0.0001213  -0.0001082
    2   0.0131088  -0.0171083  -0.0040911   0.0048018  -0.0006001  -0.0072543
    3   0.0063106  -0.0076806   0.0071084  -0.0077697   0.0092798  -0.0009981
            7           8           9          10          11          12
    1  -0.0309205   0.0008287  -0.0010234   0.0095789   0.0009024  -0.0022170
    2   0.0206491   0.0064555   0.0029592  -0.0428529   0.0152877   0.0320411
    3   0.0036710  -0.0064613   0.0099723  -0.0225551   0.0075568   0.0146194
           13          14          15          16          17          18
    1  -0.0033094  -0.0014422  -0.0100367   0.0124194   0.0388021  -0.0051180
    2   0.0273142  -0.0062888  -0.0118518  -0.0112964  -0.0104583  -0.0012234
    3   0.0074854  -0.0031527  -0.0103843  -0.0025692   0.0013570   0.0066942
           19          20
    1  -0.0030324  -0.0035158
    2   0.0042874  -0.0138793
    3  -0.0065669  -0.0059171
 Max gradient component =       4.285E-02
 RMS gradient           =       1.288E-02
 Gradient time:  CPU 5.78 s  wall 0.72 s
 Geometry Optimization Parameters
   NAtoms,    NIC,     NZ,  NCons,   NDum,   NFix, NCnnct, MaxDiis
       20     135       0       0       0       0       0       0


** GEOMETRY OPTIMIZATION IN DELOCALIZED INTERNAL COORDINATES **
   Searching for a Minimum

   Optimization Cycle:   1

                       Coordinates (Angstroms)
     ATOM                X               Y               Z
      1  C         2.3450398832    0.1534253552   -0.1167638084
      2  C         0.9853093992    0.7013752332    0.2441913782
      3  C        -0.2120851840   -0.2208207711   -0.0976465071
      4  H         0.8802845223    1.6571433808   -0.3139166547
      5  H         0.9640003758    0.9300158975    1.3319714991
      6  C        -1.5261830870    0.5630880623    0.1352771545
      7  C        -2.7868854644   -0.2094652835   -0.2662223171
      8  H        -1.4968216080    1.4897817765   -0.4801247049
      9  H        -1.6040642810    0.8575685237    1.2052391402
     10  O         3.4390709400    0.8908930641    0.1670333784
     11  H         4.3287489399    0.5820787313   -0.0558351041
     12  O         2.4720158359   -0.9235331613   -0.6811369491
     13  N        -0.1860809991   -1.4301098921    0.7372629403
     14  H        -0.1530872280   -0.4969560050   -1.1750881019
     15  H        -0.9133815726   -2.1023009521    0.4064679371
     16  H         0.7226373262   -1.9328968506    0.6417703322
     17  O        -3.9059543401    0.6121349183   -0.0825511751
     18  H        -2.8979795836   -1.1158795949    0.3663188403
     19  H        -2.7085308966   -0.4964715070   -1.3388134822
     20  H        -4.6914717702    0.0771116994   -0.3686077173
   Point Group: c1    Number of degrees of freedom:    54


   Energy is   -477.406071881


 Attempting to Generate Delocalized Internal Coordinates

 54 Hessian modes will be used to form the next step
  Hessian Eigenvalues:
     0.002627    0.002859    0.004929    0.006420    0.007886    0.011407
     0.015595    0.022318    0.035023    0.038881    0.041945    0.042629
     0.048437    0.048823    0.053525    0.053812    0.054556    0.059685
     0.084743    0.098046    0.113031    0.123062    0.130941    0.137095
     0.160000    0.160000    0.160000    0.160000    0.160782    0.177871
     0.220052    0.220605    0.220955    0.249959    0.250000    0.276909
     0.278408    0.292279    0.313736    0.321981    0.322753    0.323045
     0.323393    0.324145    0.324151    0.325078    0.357716    0.406992
     0.408736    0.455569    0.490261    0.538368    0.551158    0.942889

 Minimum Search - Taking Simple RFO Step
 Searching for Lamda that Minimizes Along All modes
 Value Taken    Lamda =  -0.02464121
 Calculated Step too Large.  Step scaled by  0.905614
 Step Taken.  Stepsize is  0.300000

                             Maximum     Tolerance    Cnvgd?
         Gradient           0.041035      0.000300      NO
         Displacement       0.120731      0.001200      NO
         Energy change     *********      0.000001      NO


 New Cartesian Coordinates Obtained by Inverse Iteration

 Displacement from previous Coordinates is:  0.524137
 ----------------------------------------------------------------
             Standard Nuclear Orientation (Angstroms)
    I     Atom           X                Y                Z
 ----------------------------------------------------------------
    1      C       2.3161080923     0.1139635209    -0.1331374202
    2      C       0.9774675242     0.7026089198     0.2265668346
    3      C      -0.2017584836    -0.2138736560    -0.1223155665
    4      H       0.8743382416     1.6600138034    -0.3069790272
    5      H       0.9579432011     0.9287152318     1.3023427416
    6      C      -1.5164888507     0.5521709565     0.1190559475
    7      C      -2.7675078909    -0.2273522228    -0.2783307096
    8      H      -1.5023962302     1.4796114258    -0.4730706879
    9      H      -1.5899277872     0.8284882732     1.1792821001
   10      O       3.3503781497     0.9230731928     0.2115908087
   11      H       4.2202900522     0.5519363147    -0.0156394480
   12      O       2.4717190742    -0.9861262331    -0.6835964416
   13      N      -0.1419588148    -1.4232045209     0.7251663950
   14      H      -0.1344605015    -0.4594994116    -1.2002001224
   15      H      -0.8549919578    -2.1097616366     0.4618556810
   16      H       0.7686196514    -1.8838801150     0.6324775382
   17      O      -3.9073781341     0.6324121618    -0.0666139459
   18      H      -2.8425217607    -1.1415935206     0.3352113652
   19      H      -2.6787139826    -0.5253520528    -1.3398998401
   20      H      -4.7441783844     0.1838321934    -0.3149401241
 ----------------------------------------------------------------
 Molecular Point Group                 C1    NOp =  1
 Largest Abelian Subgroup              C1    NOp =  1
 Nuclear Repulsion Energy =   465.0518150115 hartrees
 There are       36 alpha and       36 beta electrons
 Applying Cartesian multipole field
    Component          Value
    ---------          -----
     (2,0,0)        1.00000E-11
     (0,2,0)        2.00000E-11
     (0,0,2)       -3.00000E-10
 Nucleus-field energy     =     0.0000000014 hartrees
 Requested basis set is 6-31G
 There are 49 shells and 103 basis functions
 A cutoff of  1.0D-11 yielded   1043 shell pairs
 There are      4808 function pairs
 Smallest overlap matrix eigenvalue = 3.35E-03
 Guess MOs from SCF MO coefficient file

 -----------------------------------------------------------------------
  General SCF calculation program by
  Eric Jon Sundstrom, Paul Horn, Yuezhi Mao, Dmitri Zuev, Alec White,
  David Stuck, Shaama M.S., Shane Yost, Joonho Lee, David Small,
  Daniel Levine, Susi Lehtola, Hugh Burton, Evgeny Epifanovsky
 -----------------------------------------------------------------------
 Exchange:     0.2000 Hartree-Fock + 0.0800 Slater + 0.7200 B88
 Correlation:  0.1900 VWN1RPA + 0.8100 LYP
 Using SG-1 standard quadrature grid
 using 8 threads for integral computing
 -------------------------------------------------------
 OpenMP Integral computing Module                
 Release: version 1.0, May 2013, Q-Chem Inc. Pittsburgh 
 -------------------------------------------------------
 -------------------------------------------------------
 OpenMP BLAS3 based DFT computing Module                
 Release: version 1.0, May 2013, Q-Chem Inc. Pittsburgh 
 -------------------------------------------------------
 A restricted SCF calculation will be
 performed using DIIS
 SCF converges when DIIS error is below 1.0e-08
 ---------------------------------------
  Cycle       Energy         DIIS error
 ---------------------------------------
    1    -477.4122244214      1.67e-03  
    2    -477.4176355448      8.75e-04  
    3    -477.4167928984      1.28e-03  
    4    -477.4184376355      2.05e-04  
    5    -477.4184854973      2.59e-05  
    6    -477.4184860089      1.49e-05  
    7    -477.4184862678      1.58e-06  
    8    -477.4184862706      8.86e-07  
    9    -477.4184862716      1.33e-07  
   10    -477.4184862716      4.31e-08  
   11    -477.4184862716      1.53e-08  
   12    -477.4184862716      2.55e-09  Convergence criterion met
 ---------------------------------------
 SCF time:   CPU 21.84s  wall 3.00s 
 SCF   energy in the final basis set =     -477.4184862716
 Total energy in the final basis set =     -477.4184862716
 
 --------------------------------------------------------------
 
                    Orbital Energies (a.u.)
 --------------------------------------------------------------
 
 Alpha MOs
 -- Occupied --
-19.205 -19.154 -19.138 -14.303 -10.341 -10.232 -10.220 -10.202
-10.176  -1.128  -1.037  -1.015  -0.890  -0.785  -0.756  -0.671
 -0.616  -0.573  -0.517  -0.507  -0.499  -0.483  -0.477  -0.458
 -0.440  -0.411  -0.387  -0.379  -0.363  -0.354  -0.350  -0.327
 -0.316  -0.286  -0.265  -0.222
 -- Virtual --
 -0.014   0.058   0.065   0.075   0.110   0.125   0.140   0.161
  0.162   0.173   0.184   0.206   0.214   0.220   0.238   0.251
  0.260   0.273   0.331   0.378   0.531   0.536   0.562   0.586
  0.603   0.612   0.629   0.644   0.653   0.675   0.704   0.720
  0.727   0.769   0.792   0.802   0.819   0.844   0.866   0.889
  0.907   0.915   0.921   0.930   0.943   0.962   0.978   0.988
  1.002   1.004   1.041   1.061   1.065   1.081   1.124   1.183
  1.190   1.296   1.322   1.337   1.400   1.549   1.625   1.740
  1.809   1.869   1.955
 --------------------------------------------------------------
 
          Ground-State Mulliken Net Atomic Charges

     Atom                 Charge (a.u.)
  ----------------------------------------
      1 C                     0.488745
      2 C                    -0.295862
      3 C                     0.012696
      4 H                     0.176148
      5 H                     0.193480
      6 C                    -0.211066
      7 C                    -0.033404
      8 H                     0.134602
      9 H                     0.153856
     10 O                    -0.547479
     11 H                     0.388044
     12 O                    -0.431620
     13 N                    -0.696651
     14 H                     0.121138
     15 H                     0.270467
     16 H                     0.293793
     17 O                    -0.614831
     18 H                     0.124174
     19 H                     0.115850
     20 H                     0.357921
  ----------------------------------------
  Sum of atomic charges =    -0.000000

 -----------------------------------------------------------------
                    Cartesian Multipole Moments
 -----------------------------------------------------------------
    Charge (ESU x 10^10)
                 0.0000
    Dipole Moment (Debye)
         X       0.2868      Y      -0.7302      Z      -1.2579
       Tot       1.4825
    Quadrupole Moments (Debye-Ang)
        XX     -42.0418     XY       9.4413     YY     -56.5897
        XZ       4.6966     YZ      -1.1279     ZZ     -58.0498
    Octopole Moments (Debye-Ang^2)
       XXX      18.8957    XXY     -21.3362    XYY      -3.3503
       YYY      -9.9185    XXZ     -12.2659    XYZ      -7.9142
       YYZ       0.4831    XZZ       0.6985    YZZ       5.6042
       ZZZ      -4.2173
    Hexadecapole Moments (Debye-Ang^3)
      XXXX   -1213.8414   XXXY     129.0964   XXYY    -410.8220
      XYYY      10.0897   YYYY    -265.8326   XXXZ      53.7754
      XXYZ     -23.5001   XYYZ       1.5360   YYYZ      -8.2578
      XXZZ    -334.8838   XYZZ       3.2739   YYZZ     -73.4587
      XZZZ       0.3043   YZZZ       6.1692   ZZZZ    -129.2579
 -----------------------------------------------------------------
 Calculating analytic gradient of the SCF energy
 Gradient of SCF Energy
            1           2           3           4           5           6
    1   0.0121019  -0.0005408   0.0030570  -0.0008349  -0.0009296   0.0022379
    2   0.0104486  -0.0034545  -0.0006425   0.0008851   0.0001493  -0.0026125
    3   0.0034989  -0.0001059  -0.0002963  -0.0019282   0.0015858   0.0001671
            7           8           9          10          11          12
    1  -0.0080118   0.0001418  -0.0003375  -0.0013643  -0.0052614  -0.0059328
    2   0.0072786   0.0008383   0.0005883  -0.0121638   0.0054127  -0.0013221
    3   0.0019192  -0.0015802   0.0013525  -0.0053732   0.0029407  -0.0007876
           13          14          15          16          17          18
    1  -0.0020048  -0.0005893  -0.0007994   0.0028278   0.0064859   0.0017304
    2   0.0083029  -0.0008997  -0.0044779  -0.0031850  -0.0035089  -0.0013900
    3   0.0061255  -0.0004540  -0.0039923  -0.0016933  -0.0000700   0.0017443
           19          20
    1   0.0021205  -0.0040966
    2   0.0004666  -0.0007135
    3  -0.0020814  -0.0009717
 Max gradient component =       1.216E-02
 RMS gradient           =       4.037E-03
 Gradient time:  CPU 5.67 s  wall 0.71 s
 Geometry Optimization Parameters
   NAtoms,    NIC,     NZ,  NCons,   NDum,   NFix, NCnnct, MaxDiis
       20     135       0       0       0       0       0       0

 Cartesian Hessian Update
 Hessian Updated using BFGS Update


** GEOMETRY OPTIMIZATION IN DELOCALIZED INTERNAL COORDINATES **
   Searching for a Minimum

   Optimization Cycle:   2

                       Coordinates (Angstroms)
     ATOM                X               Y               Z
      1  C         2.3161080923    0.1139635209   -0.1331374202
      2  C         0.9774675242    0.7026089198    0.2265668346
      3  C        -0.2017584836   -0.2138736560   -0.1223155665
      4  H         0.8743382416    1.6600138034   -0.3069790272
      5  H         0.9579432011    0.9287152318    1.3023427416
      6  C        -1.5164888507    0.5521709565    0.1190559475
      7  C        -2.7675078909   -0.2273522228   -0.2783307096
      8  H        -1.5023962302    1.4796114258   -0.4730706879
      9  H        -1.5899277872    0.8284882732    1.1792821001
     10  O         3.3503781497    0.9230731928    0.2115908087
     11  H         4.2202900522    0.5519363147   -0.0156394480
     12  O         2.4717190742   -0.9861262331   -0.6835964416
     13  N        -0.1419588148   -1.4232045209    0.7251663950
     14  H        -0.1344605015   -0.4594994116   -1.2002001224
     15  H        -0.8549919578   -2.1097616366    0.4618556810
     16  H         0.7686196514   -1.8838801150    0.6324775382
     17  O        -3.9073781341    0.6324121618   -0.0666139459
     18  H        -2.8425217607   -1.1415935206    0.3352113652
     19  H        -2.6787139826   -0.5253520528   -1.3398998401
     20  H        -4.7441783844    0.1838321934   -0.3149401241
   Point Group: c1    Number of degrees of freedom:    54


   Energy is   -477.418486272

 Hessian Updated using BFGS Update

 52 Hessian modes will be used to form the next step
  Hessian Eigenvalues:
     0.002630    0.002859    0.004929    0.006409    0.007885    0.011453
     0.015593    0.022318    0.035015    0.038882    0.041335    0.042712
     0.048639    0.048824    0.053463    0.053816    0.054680    0.061007
     0.084745    0.098031    0.113480    0.123064    0.130895    0.137066
     0.153858    0.160751    0.168535    0.177521    0.216737    0.220055
     0.224260    0.238256    0.269847    0.278263    0.289537    0.293473
     0.314370    0.321098    0.322068    0.323129    0.323793    0.323934
     0.324289    0.325564    0.358221    0.399578    0.408044    0.453116
     0.488786    0.540375    0.552674    0.956958

 Minimum Search - Taking Simple RFO Step
 Searching for Lamda that Minimizes Along All modes
 Value Taken    Lamda =  -0.00268976
 Step Taken.  Stepsize is  0.245611

                             Maximum     Tolerance    Cnvgd?
         Gradient           0.011720      0.000300      NO
         Displacement       0.084909      0.001200      NO
         Energy change     -0.012414      0.000001      NO


 New Cartesian Coordinates Obtained by Inverse Iteration

 Displacement from previous Coordinates is:  0.316976
 ----------------------------------------------------------------
             Standard Nuclear Orientation (Angstroms)
    I     Atom           X                Y                Z
 ----------------------------------------------------------------
    1      C       2.3332966468     0.1093077228    -0.1189702023
    2      C       0.9833698953     0.6931290153     0.2154254931
    3      C      -0.2040886371    -0.2156079243    -0.1411378227
    4      H       0.8927056465     1.6537800830    -0.3061532583
    5      H       0.9612984840     0.9185686834     1.2874286689
    6      C      -1.5189950286     0.5439736967     0.1121945661
    7      C      -2.7687407434    -0.2388508084    -0.2793757382
    8      H      -1.5128633367     1.4773411202    -0.4636199322
    9      H      -1.5847810356     0.8064333367     1.1726152083
   10      O       3.3456929550     0.9676716971     0.2147540829
   11      H       4.2160392589     0.5763842451    -0.0137105914
   12      O       2.5552464519    -0.9932072132    -0.6431992864
   13      N      -0.1436409265    -1.4318423140     0.6981757326
   14      H      -0.1391179691    -0.4456625827    -1.2210060442
   15      H      -0.9008536441    -2.0844125246     0.5154650474
   16      H       0.7457383088    -1.9133821590     0.5872600694
   17      O      -3.8971381513     0.6502131191    -0.0649380974
   18      H      -2.8666492697    -1.1436774074     0.3374546934
   19      H      -2.7068980793    -0.5506210972    -1.3344930059
   20      H      -4.7350396176     0.2066439362    -0.2953435049
 ----------------------------------------------------------------
 Molecular Point Group                 C1    NOp =  1
 Largest Abelian Subgroup              C1    NOp =  1
 Nuclear Repulsion Energy =   463.9156143411 hartrees
 There are       36 alpha and       36 beta electrons
 Applying Cartesian multipole field
    Component          Value
    ---------          -----
     (2,0,0)        1.00000E-11
     (0,2,0)        2.00000E-11
     (0,0,2)       -3.00000E-10
 Nucleus-field energy     =     0.0000000024 hartrees
 Requested basis set is 6-31G
 There are 49 shells and 103 basis functions
 A cutoff of  1.0D-11 yielded   1043 shell pairs
 There are      4793 function pairs
 Smallest overlap matrix eigenvalue = 3.39E-03
 Guess MOs from SCF MO coefficient file

 -----------------------------------------------------------------------
  General SCF calculation program by
  Eric Jon Sundstrom, Paul Horn, Yuezhi Mao, Dmitri Zuev, Alec White,
  David Stuck, Shaama M.S., Shane Yost, Joonho Lee, David Small,
  Daniel Levine, Susi Lehtola, Hugh Burton, Evgeny Epifanovsky
 -----------------------------------------------------------------------
 Exchange:     0.2000 Hartree-Fock + 0.0800 Slater + 0.7200 B88
 Correlation:  0.1900 VWN1RPA + 0.8100 LYP
 Using SG-1 standard quadrature grid
 using 8 threads for integral computing
 -------------------------------------------------------
 OpenMP Integral computing Module                
 Release: version 1.0, May 2013, Q-Chem Inc. Pittsburgh 
 -------------------------------------------------------
 -------------------------------------------------------
 OpenMP BLAS3 based DFT computing Module                
 Release: version 1.0, May 2013, Q-Chem Inc. Pittsburgh 
 -------------------------------------------------------
 A restricted SCF calculation will be
 performed using DIIS
 SCF converges when DIIS error is below 1.0e-08
 ---------------------------------------
  Cycle       Energy         DIIS error
 ---------------------------------------
    1    -477.4158806203      1.28e-03  
    2    -477.4198484447      4.13e-04  
    3    -477.4195361980      6.99e-04  
    4    -477.4200233246      1.29e-04  
    5    -477.4200401228      2.59e-05  
    6    -477.4200407711      8.40e-06  
    7    -477.4200408622      1.32e-06  
    8    -477.4200408641      6.34e-07  
    9    -477.4200408646      1.25e-07  
   10    -477.4200408646      4.72e-08  
   11    -477.4200408646      1.09e-08  
   12    -477.4200408646      5.76e-09  Convergence criterion met
 ---------------------------------------
 SCF time:   CPU 21.25s  wall 2.00s 
 SCF   energy in the final basis set =     -477.4200408646
 Total energy in the final basis set =     -477.4200408646
 
 --------------------------------------------------------------
 
                    Orbital Energies (a.u.)
 --------------------------------------------------------------
 
 Alpha MOs
 -- Occupied --
-19.202 -19.156 -19.138 -14.302 -10.340 -10.233 -10.222 -10.202
-10.177  -1.124  -1.034  -1.015  -0.889  -0.785  -0.757  -0.670
 -0.612  -0.574  -0.519  -0.505  -0.498  -0.484  -0.477  -0.460
 -0.439  -0.413  -0.390  -0.379  -0.364  -0.355  -0.351  -0.325
 -0.320  -0.287  -0.267  -0.221
 -- Virtual --
 -0.015   0.060   0.065   0.076   0.109   0.124   0.140   0.161
  0.162   0.172   0.181   0.205   0.209   0.223   0.238   0.248
  0.259   0.271   0.329   0.373   0.530   0.534   0.562   0.586
  0.600   0.611   0.630   0.644   0.652   0.673   0.704   0.719
  0.727   0.768   0.792   0.799   0.821   0.846   0.867   0.892
  0.907   0.914   0.924   0.931   0.946   0.963   0.982   0.988
  1.004   1.007   1.044   1.060   1.070   1.078   1.120   1.178
  1.191   1.282   1.321   1.335   1.404   1.553   1.613   1.734
  1.788   1.870   1.954
 --------------------------------------------------------------
 
          Ground-State Mulliken Net Atomic Charges

     Atom                 Charge (a.u.)
  ----------------------------------------
      1 C                     0.485775
      2 C                    -0.290957
      3 C                     0.017678
      4 H                     0.176493
      5 H                     0.194900
      6 C                    -0.214328
      7 C                    -0.037916
      8 H                     0.138202
      9 H                     0.155254
     10 O                    -0.548689
     11 H                     0.385806
     12 O                    -0.433085
     13 N                    -0.705324
     14 H                     0.119202
     15 H                     0.273092
     16 H                     0.296826
     17 O                    -0.613782
     18 H                     0.124535
     19 H                     0.119754
     20 H                     0.356563
  ----------------------------------------
  Sum of atomic charges =     0.000000

 -----------------------------------------------------------------
                    Cartesian Multipole Moments
 -----------------------------------------------------------------
    Charge (ESU x 10^10)
                 0.0000
    Dipole Moment (Debye)
         X      -0.1182      Y      -0.8129      Z      -1.1875
       Tot       1.4439
    Quadrupole Moments (Debye-Ang)
        XX     -42.9490     XY       9.6992     YY     -56.7189
        XZ       4.3352     YZ      -1.2184     ZZ     -57.7571
    Octopole Moments (Debye-Ang^2)
       XXX      11.2962    XXY     -21.0828    XYY      -4.9166
       YYY     -10.4607    XXZ     -11.0887    XYZ      -7.4165
       YYZ       0.7924    XZZ       0.0891    YZZ       4.9902
       ZZZ      -4.0196
    Hexadecapole Moments (Debye-Ang^3)
      XXXX   -1248.9484   XXXY     129.9529   XXYY    -416.3829
      XYYY       9.0581   YYYY    -269.8160   XXXZ      50.3725
      XXYZ     -23.7223   XYYZ       0.3197   YYYZ      -9.0852
      XXZZ    -336.6097   XYZZ       3.2518   YYZZ     -72.9240
      XZZZ      -1.3181   YZZZ       5.8393   ZZZZ    -125.0830
 -----------------------------------------------------------------
 Calculating analytic gradient of the SCF energy
 Gradient of SCF Energy
            1           2           3           4           5           6
    1   0.0063995  -0.0001544   0.0002932  -0.0006914  -0.0000299  -0.0002003
    2   0.0048002   0.0013172   0.0012358  -0.0005196   0.0004002   0.0013131
    3   0.0040096   0.0005283  -0.0026862   0.0005012  -0.0012534   0.0007974
            7           8           9          10          11          12
    1  -0.0025504   0.0004969   0.0001609  -0.0040668  -0.0010522   0.0007175
    2   0.0002946  -0.0003494  -0.0000164  -0.0032100   0.0002424  -0.0029921
    3   0.0005397   0.0002886  -0.0009814  -0.0013525   0.0000281  -0.0029373
           13          14          15          16          17          18
    1  -0.0020138  -0.0004663   0.0013069  -0.0007447   0.0003893   0.0007708
    2  -0.0002629   0.0001836  -0.0011534  -0.0001406  -0.0020983   0.0000891
    3   0.0042755   0.0006673  -0.0013845  -0.0006341  -0.0003328  -0.0004435
           19          20
    1   0.0001604   0.0012748
    2  -0.0001637   0.0010302
    3   0.0001390   0.0002310
 Max gradient component =       6.400E-03
 RMS gradient           =       1.778E-03
 Gradient time:  CPU 5.67 s  wall 0.71 s
 Geometry Optimization Parameters
   NAtoms,    NIC,     NZ,  NCons,   NDum,   NFix, NCnnct, MaxDiis
       20     135       0       0       0       0       0       0

 Cartesian Hessian Update
 Hessian Updated using BFGS Update


** GEOMETRY OPTIMIZATION IN DELOCALIZED INTERNAL COORDINATES **
   Searching for a Minimum

   Optimization Cycle:   3

                       Coordinates (Angstroms)
     ATOM                X               Y               Z
      1  C         2.3332966468    0.1093077228   -0.1189702023
      2  C         0.9833698953    0.6931290153    0.2154254931
      3  C        -0.2040886371   -0.2156079243   -0.1411378227
      4  H         0.8927056465    1.6537800830   -0.3061532583
      5  H         0.9612984840    0.9185686834    1.2874286689
      6  C        -1.5189950286    0.5439736967    0.1121945661
      7  C        -2.7687407434   -0.2388508084   -0.2793757382
      8  H        -1.5128633367    1.4773411202   -0.4636199322
      9  H        -1.5847810356    0.8064333367    1.1726152083
     10  O         3.3456929550    0.9676716971    0.2147540829
     11  H         4.2160392589    0.5763842451   -0.0137105914
     12  O         2.5552464519   -0.9932072132   -0.6431992864
     13  N        -0.1436409265   -1.4318423140    0.6981757326
     14  H        -0.1391179691   -0.4456625827   -1.2210060442
     15  H        -0.9008536441   -2.0844125246    0.5154650474
     16  H         0.7457383088   -1.9133821590    0.5872600694
     17  O        -3.8971381513    0.6502131191   -0.0649380974
     18  H        -2.8666492697   -1.1436774074    0.3374546934
     19  H        -2.7068980793   -0.5506210972   -1.3344930059
     20  H        -4.7350396176    0.2066439362   -0.2953435049
   Point Group: c1    Number of degrees of freedom:    54


   Energy is   -477.420040865

 Hessian Updated using BFGS Update

 53 Hessian modes will be used to form the next step
  Hessian Eigenvalues:
     0.002561    0.002862    0.004848    0.005846    0.007663    0.011733
     0.015553    0.022319    0.035221    0.035873    0.039162    0.042766
     0.048675    0.048849    0.053801    0.054300    0.054782    0.060832
     0.084779    0.097628    0.112452    0.123059    0.131009    0.137181
     0.154981    0.160030    0.163747    0.169619    0.177669    0.217544
     0.221114    0.228668    0.251129    0.268644    0.278682    0.289069
     0.294138    0.319725    0.321912    0.322936    0.323294    0.323909
     0.324113    0.325348    0.331877    0.364435    0.397274    0.408481
     0.446195    0.497160    0.527746    0.550833    0.960700

 Minimum Search - Taking Simple RFO Step
 Searching for Lamda that Minimizes Along All modes
 Value Taken    Lamda =  -0.00104035
 Calculated Step too Large.  Step scaled by  0.836554
 Step Taken.  Stepsize is  0.300000

                             Maximum     Tolerance    Cnvgd?
         Gradient           0.003844      0.000300      NO
         Displacement       0.155396      0.001200      NO
         Energy change     -0.001555      0.000001      NO


 New Cartesian Coordinates Obtained by Inverse Iteration

 Displacement from previous Coordinates is:  0.421806
 ----------------------------------------------------------------
             Standard Nuclear Orientation (Angstroms)
    I     Atom           X                Y                Z
 ----------------------------------------------------------------
    1      C       2.3281790497     0.1048291865    -0.1069844074
    2      C       0.9809142830     0.7098115566     0.1834939608
    3      C      -0.2041127784    -0.2054964574    -0.1617059675
    4      H       0.9097512892     1.6557330417    -0.3670725285
    5      H       0.9486450125     0.9640652257     1.2495665656
    6      C      -1.5239440989     0.5338848251     0.1254263052
    7      C      -2.7730253322    -0.2426942915    -0.2771268127
    8      H      -1.5336836990     1.4830451598    -0.4232924065
    9      H      -1.5824156332     0.7658732943     1.1938853725
   10      O       3.3483349227     0.9754519461     0.2056617514
   11      H       4.2179124283     0.5482811882     0.0307753649
   12      O       2.5605364598    -1.0391996343    -0.5217779474
   13      N      -0.1048225845    -1.4287807968     0.6576188232
   14      H      -0.1548233679    -0.4211426848    -1.2461037312
   15      H      -0.8910185781    -2.0603181534     0.5519911778
   16      H       0.7706232142    -1.9205501247     0.5018350918
   17      O      -3.9011642557     0.6515252039    -0.0509649102
   18      H      -2.8829952885    -1.1533638748     0.3281015943
   19      H      -2.7190762397    -0.5415646724    -1.3353405490
   20      H      -4.7392335949     0.2067926868    -0.2791606687
 ----------------------------------------------------------------
 Molecular Point Group                 C1    NOp =  1
 Largest Abelian Subgroup              C1    NOp =  1
 Nuclear Repulsion Energy =   464.2571917456 hartrees
 There are       36 alpha and       36 beta electrons
 Applying Cartesian multipole field
    Component          Value
    ---------          -----
     (2,0,0)        1.00000E-11
     (0,2,0)        2.00000E-11
     (0,0,2)       -3.00000E-10
 Nucleus-field energy     =     0.0000000043 hartrees
 Requested basis set is 6-31G
 There are 49 shells and 103 basis functions
 A cutoff of  1.0D-11 yielded   1041 shell pairs
 There are      4791 function pairs
 Smallest overlap matrix eigenvalue = 3.37E-03
 Guess MOs from SCF MO coefficient file

 -----------------------------------------------------------------------
  General SCF calculation program by
  Eric Jon Sundstrom, Paul Horn, Yuezhi Mao, Dmitri Zuev, Alec White,
  David Stuck, Shaama M.S., Shane Yost, Joonho Lee, David Small,
  Daniel Levine, Susi Lehtola, Hugh Burton, Evgeny Epifanovsky
 -----------------------------------------------------------------------
 Exchange:     0.2000 Hartree-Fock + 0.0800 Slater + 0.7200 B88
 Correlation:  0.1900 VWN1RPA + 0.8100 LYP
 Using SG-1 standard quadrature grid
 using 8 threads for integral computing
 -------------------------------------------------------
 OpenMP Integral computing Module                
 Release: version 1.0, May 2013, Q-Chem Inc. Pittsburgh 
 -------------------------------------------------------
 -------------------------------------------------------
 OpenMP BLAS3 based DFT computing Module                
 Release: version 1.0, May 2013, Q-Chem Inc. Pittsburgh 
 -------------------------------------------------------
 A restricted SCF calculation will be
 performed using DIIS
 SCF converges when DIIS error is below 1.0e-08
 ---------------------------------------
  Cycle       Energy         DIIS error
 ---------------------------------------
    1    -477.4109666749      1.80e-03  
    2    -477.4203129831      2.51e-04  
    3    -477.4203234404      3.38e-04  
    4    -477.4204300335      9.74e-05  
    5    -477.4204379588      4.76e-05  
    6    -477.4204402454      4.60e-06  
    7    -477.4204402732      1.86e-06  
    8    -477.4204402781      5.13e-07  
    9    -477.4204402784      1.84e-07  
   10    -477.4204402784      4.73e-08  
   11    -477.4204402784      1.42e-08  
   12    -477.4204402784      2.23e-09  Convergence criterion met
 ---------------------------------------
 SCF time:   CPU 21.23s  wall 3.00s 
 SCF   energy in the final basis set =     -477.4204402784
 Total energy in the final basis set =     -477.4204402784
 
 --------------------------------------------------------------
 
                    Orbital Energies (a.u.)
 --------------------------------------------------------------
 
 Alpha MOs
 -- Occupied --
-19.201 -19.157 -19.139 -14.298 -10.341 -10.234 -10.222 -10.202
-10.178  -1.122  -1.034  -1.015  -0.888  -0.784  -0.758  -0.669
 -0.610  -0.574  -0.519  -0.504  -0.498  -0.485  -0.475  -0.460
 -0.439  -0.414  -0.390  -0.379  -0.365  -0.356  -0.351  -0.325
 -0.321  -0.287  -0.267  -0.218
 -- Virtual --
 -0.016   0.060   0.064   0.077   0.109   0.123   0.141   0.161
  0.165   0.174   0.180   0.203   0.207   0.223   0.241   0.247
  0.263   0.267   0.330   0.373   0.530   0.533   0.562   0.585
  0.599   0.612   0.630   0.646   0.652   0.670   0.705   0.720
  0.728   0.768   0.790   0.799   0.821   0.845   0.867   0.896
  0.909   0.911   0.922   0.931   0.947   0.960   0.984   0.986
  1.004   1.015   1.045   1.064   1.071   1.078   1.125   1.189
  1.203   1.275   1.326   1.333   1.405   1.554   1.610   1.735
  1.777   1.870   1.954
 --------------------------------------------------------------
 
          Ground-State Mulliken Net Atomic Charges

     Atom                 Charge (a.u.)
  ----------------------------------------
      1 C                     0.489170
      2 C                    -0.287086
      3 C                     0.022150
      4 H                     0.173654
      5 H                     0.196442
      6 C                    -0.218858
      7 C                    -0.038939
      8 H                     0.140704
      9 H                     0.155229
     10 O                    -0.551715
     11 H                     0.385164
     12 O                    -0.432528
     13 N                    -0.714188
     14 H                     0.115540
     15 H                     0.272789
     16 H                     0.304158
     17 O                    -0.613560
     18 H                     0.123848
     19 H                     0.121819
     20 H                     0.356206
  ----------------------------------------
  Sum of atomic charges =     0.000000

 -----------------------------------------------------------------
                    Cartesian Multipole Moments
 -----------------------------------------------------------------
    Charge (ESU x 10^10)
                 0.0000
    Dipole Moment (Debye)
         X      -0.2807      Y      -0.8184      Z      -1.2484
       Tot       1.5189
    Quadrupole Moments (Debye-Ang)
        XX     -43.1866     XY       9.6593     YY     -57.1162
        XZ       3.9258     YZ      -0.9748     ZZ     -57.2351
    Octopole Moments (Debye-Ang^2)
       XXX       9.5268    XXY     -22.1512    XYY      -6.2139
       YYY      -9.8100    XXZ     -10.8572    XYZ      -5.7869
       YYZ       0.4881    XZZ       0.5357    YZZ       4.5278
       ZZZ      -4.7585
    Hexadecapole Moments (Debye-Ang^3)
      XXXX   -1258.9209   XXXY     128.3202   XXYY    -421.2512
      XYYY      11.1144   YYYY    -274.2836   XXXZ      50.5057
      XXYZ     -20.6852   XYYZ      -1.6591   YYYZ      -8.4748
      XXZZ    -333.6734   XYZZ       3.8475   YYZZ     -71.6455
      XZZZ      -6.0763   YZZZ       6.2704   ZZZZ    -117.0963
 -----------------------------------------------------------------
 Calculating analytic gradient of the SCF energy
 Gradient of SCF Energy
            1           2           3           4           5           6
    1   0.0002210  -0.0001670  -0.0004070   0.0001087  -0.0000399  -0.0007688
    2   0.0027137  -0.0007146   0.0024625  -0.0005907   0.0004941   0.0015394
    3  -0.0049038   0.0022847  -0.0024931   0.0002683  -0.0008052   0.0006928
            7           8           9          10          11          12
    1   0.0001339   0.0001929  -0.0001373  -0.0022920   0.0012288   0.0005694
    2  -0.0009166  -0.0005587  -0.0000576   0.0002655  -0.0012079  -0.0021356
    3   0.0000279   0.0002950  -0.0006997   0.0023363  -0.0005393   0.0013682
           13          14          15          16          17          18
    1   0.0000623   0.0001123   0.0012945  -0.0002196  -0.0009900   0.0001665
    2  -0.0009610  -0.0001119  -0.0004781  -0.0000995  -0.0008277   0.0005663
    3   0.0021362   0.0008829  -0.0008248  -0.0000963  -0.0000700  -0.0005273
           19          20
    1  -0.0005318   0.0014630
    2  -0.0001638   0.0007820
    3   0.0004646   0.0002025
 Max gradient component =       4.904E-03
 RMS gradient           =       1.236E-03
 Gradient time:  CPU 5.67 s  wall 0.71 s
 Geometry Optimization Parameters
   NAtoms,    NIC,     NZ,  NCons,   NDum,   NFix, NCnnct, MaxDiis
       20     135       0       0       0       0       0       0

 Cartesian Hessian Update
 Hessian Updated using BFGS Update


** GEOMETRY OPTIMIZATION IN DELOCALIZED INTERNAL COORDINATES **
   Searching for a Minimum

   Optimization Cycle:   4

                       Coordinates (Angstroms)
     ATOM                X               Y               Z
      1  C         2.3281790497    0.1048291865   -0.1069844074
      2  C         0.9809142830    0.7098115566    0.1834939608
      3  C        -0.2041127784   -0.2054964574   -0.1617059675
      4  H         0.9097512892    1.6557330417   -0.3670725285
      5  H         0.9486450125    0.9640652257    1.2495665656
      6  C        -1.5239440989    0.5338848251    0.1254263052
      7  C        -2.7730253322   -0.2426942915   -0.2771268127
      8  H        -1.5336836990    1.4830451598   -0.4232924065
      9  H        -1.5824156332    0.7658732943    1.1938853725
     10  O         3.3483349227    0.9754519461    0.2056617514
     11  H         4.2179124283    0.5482811882    0.0307753649
     12  O         2.5605364598   -1.0391996343   -0.5217779474
     13  N        -0.1048225845   -1.4287807968    0.6576188232
     14  H        -0.1548233679   -0.4211426848   -1.2461037312
     15  H        -0.8910185781   -2.0603181534    0.5519911778
     16  H         0.7706232142   -1.9205501247    0.5018350918
     17  O        -3.9011642557    0.6515252039   -0.0509649102
     18  H        -2.8829952885   -1.1533638748    0.3281015943
     19  H        -2.7190762397   -0.5415646724   -1.3353405490
     20  H        -4.7392335949    0.2067926868   -0.2791606687
   Point Group: c1    Number of degrees of freedom:    54


   Energy is   -477.420440278

 Hessian Updated using BFGS Update

 54 Hessian modes will be used to form the next step
  Hessian Eigenvalues:
     0.002493    0.002937    0.003933    0.005131    0.007500    0.015473
     0.022249    0.024398    0.033282    0.035363    0.039149    0.042781
     0.048832    0.049579    0.053847    0.054132    0.058143    0.061093
     0.084855    0.097884    0.113807    0.122981    0.131020    0.137108
     0.158699    0.160006    0.160509    0.167977    0.169425    0.179145
     0.218492    0.221877    0.233886    0.251732    0.268414    0.280371
     0.288453    0.294274    0.321407    0.322641    0.322922    0.323580
     0.324101    0.325088    0.325326    0.331590    0.353926    0.399288
     0.408659    0.445210    0.493037    0.524342    0.545825    0.948404

 Minimum Search - Taking Simple RFO Step
 Searching for Lamda that Minimizes Along All modes
 Value Taken    Lamda =  -0.00084509
 Calculated Step too Large.  Step scaled by  0.877615
 Step Taken.  Stepsize is  0.300000

                             Maximum     Tolerance    Cnvgd?
         Gradient           0.002212      0.000300      NO
         Displacement       0.132681      0.001200      NO
         Energy change     -0.000399      0.000001      NO


 New Cartesian Coordinates Obtained by Inverse Iteration

 Displacement from previous Coordinates is:  0.440436
 ----------------------------------------------------------------
             Standard Nuclear Orientation (Angstroms)
    I     Atom           X                Y                Z
 ----------------------------------------------------------------
    1      C       2.3273409412     0.1009848062    -0.0789991307
    2      C       0.9807129283     0.7030672528     0.2025058471
    3      C      -0.1993459274    -0.2187233653    -0.1432058830
    4      H       0.9117334388     1.6487367476    -0.3506273554
    5      H       0.9477197971     0.9549790623     1.2707988918
    6      C      -1.5209478502     0.5136568495     0.1501814611
    7      C      -2.7689789872    -0.2380021324    -0.2971098030
    8      H      -1.5230100654     1.4801334952    -0.3688503798
    9      H      -1.5934141661     0.7124439157     1.2258880528
   10      O       3.3458968497     1.0150090385     0.1302316000
   11      H       4.2155098196     0.5947750179    -0.0651418842
   12      O       2.5669701934    -1.0446796048    -0.4783799470
   13      N      -0.0921035996    -1.4422203779     0.6655604213
   14      H      -0.1535750297    -0.4249657814    -1.2313120445
   15      H      -0.9136272622    -2.0344815140     0.6425810707
   16      H       0.7573343950    -1.9645097770     0.4735406063
   17      O      -3.8942298597     0.6705558266    -0.0855913912
   18      H      -2.9132511671    -1.1571907047     0.2891915238
   19      H      -2.6924195515    -0.5185646511    -1.3588301090
   20      H      -4.7337336888     0.2351785208    -0.3336054686
 ----------------------------------------------------------------
 Molecular Point Group                 C1    NOp =  1
 Largest Abelian Subgroup              C1    NOp =  1
 Nuclear Repulsion Energy =   464.0996136809 hartrees
 There are       36 alpha and       36 beta electrons
 Applying Cartesian multipole field
    Component          Value
    ---------          -----
     (2,0,0)        1.00000E-11
     (0,2,0)        2.00000E-11
     (0,0,2)       -3.00000E-10
 Nucleus-field energy     =     0.0000000045 hartrees
 Requested basis set is 6-31G
 There are 49 shells and 103 basis functions
 A cutoff of  1.0D-11 yielded   1042 shell pairs
 There are      4795 function pairs
 Smallest overlap matrix eigenvalue = 3.36E-03
 Guess MOs from SCF MO coefficient file

 -----------------------------------------------------------------------
  General SCF calculation program by
  Eric Jon Sundstrom, Paul Horn, Yuezhi Mao, Dmitri Zuev, Alec White,
  David Stuck, Shaama M.S., Shane Yost, Joonho Lee, David Small,
  Daniel Levine, Susi Lehtola, Hugh Burton, Evgeny Epifanovsky
 -----------------------------------------------------------------------
 Exchange:     0.2000 Hartree-Fock + 0.0800 Slater + 0.7200 B88
 Correlation:  0.1900 VWN1RPA + 0.8100 LYP
 Using SG-1 standard quadrature grid
 using 8 threads for integral computing
 -------------------------------------------------------
 OpenMP Integral computing Module                
 Release: version 1.0, May 2013, Q-Chem Inc. Pittsburgh 
 -------------------------------------------------------
 -------------------------------------------------------
 OpenMP BLAS3 based DFT computing Module                
 Release: version 1.0, May 2013, Q-Chem Inc. Pittsburgh 
 -------------------------------------------------------
 A restricted SCF calculation will be
 performed using DIIS
 SCF converges when DIIS error is below 1.0e-08
 ---------------------------------------
  Cycle       Energy         DIIS error
 ---------------------------------------
    1    -477.4152914375      1.33e-03  
    2    -477.4206133294      2.43e-04  
    3    -477.4205024517      4.56e-04  
    4    -477.4207108897      6.79e-05  
    5    -477.4207147460      3.39e-05  
    6    -477.4207159637      3.03e-06  
    7    -477.4207159787      1.77e-06  
    8    -477.4207159830      5.14e-07  
    9    -477.4207159834      1.47e-07  
   10    -477.4207159834      4.62e-08  
   11    -477.4207159834      1.94e-08  
   12    -477.4207159834      3.04e-09  Convergence criterion met
 ---------------------------------------
 SCF time:   CPU 21.20s  wall 2.00s 
 SCF   energy in the final basis set =     -477.4207159834
 Total energy in the final basis set =     -477.4207159834
 
 --------------------------------------------------------------
 
                    Orbital Energies (a.u.)
 --------------------------------------------------------------
 
 Alpha MOs
 -- Occupied --
-19.199 -19.157 -19.139 -14.297 -10.340 -10.235 -10.222 -10.201
-10.179  -1.119  -1.033  -1.014  -0.888  -0.784  -0.758  -0.668
 -0.609  -0.574  -0.519  -0.503  -0.498  -0.484  -0.475  -0.461
 -0.438  -0.415  -0.390  -0.378  -0.365  -0.357  -0.351  -0.324
 -0.322  -0.286  -0.268  -0.217
 -- Virtual --
 -0.015   0.060   0.064   0.076   0.109   0.121   0.141   0.160
  0.165   0.173   0.179   0.205   0.207   0.222   0.241   0.249
  0.264   0.266   0.331   0.373   0.531   0.532   0.562   0.586
  0.597   0.614   0.632   0.646   0.654   0.668   0.705   0.721
  0.729   0.767   0.791   0.800   0.822   0.845   0.866   0.896
  0.905   0.909   0.924   0.932   0.949   0.959   0.978   0.985
  1.004   1.018   1.044   1.063   1.069   1.075   1.126   1.186
  1.218   1.268   1.323   1.343   1.405   1.554   1.609   1.736
  1.770   1.868   1.954
 --------------------------------------------------------------
 
          Ground-State Mulliken Net Atomic Charges

     Atom                 Charge (a.u.)
  ----------------------------------------
      1 C                     0.490934
      2 C                    -0.282970
      3 C                     0.027059
      4 H                     0.173352
      5 H                     0.194640
      6 C                    -0.226305
      7 C                    -0.038703
      8 H                     0.143732
      9 H                     0.155131
     10 O                    -0.555726
     11 H                     0.384312
     12 O                    -0.431051
     13 N                    -0.719146
     14 H                     0.114441
     15 H                     0.273946
     16 H                     0.307638
     17 O                    -0.613586
     18 H                     0.122072
     19 H                     0.123949
     20 H                     0.356280
  ----------------------------------------
  Sum of atomic charges =     0.000000

 -----------------------------------------------------------------
                    Cartesian Multipole Moments
 -----------------------------------------------------------------
    Charge (ESU x 10^10)
                 0.0000
    Dipole Moment (Debye)
         X      -0.4674      Y      -0.8599      Z      -1.2295
       Tot       1.5715
    Quadrupole Moments (Debye-Ang)
        XX     -43.4114     XY       9.6896     YY     -57.3697
        XZ       3.5244     YZ      -0.8746     ZZ     -56.8551
    Octopole Moments (Debye-Ang^2)
       XXX       7.6228    XXY     -21.3492    XYY      -6.6929
       YYY     -10.2742    XXZ     -13.2167    XYZ      -4.9012
       YYZ       0.8292    XZZ       0.2581    YZZ       4.2085
       ZZZ      -4.8230
    Hexadecapole Moments (Debye-Ang^3)
      XXXX   -1262.8710   XXXY     127.4984   XXYY    -423.0060
      XYYY       9.4293   YYYY    -278.8597   XXXZ      46.3644
      XXYZ     -18.9206   XYYZ      -2.8828   YYYZ      -6.5948
      XXZZ    -330.0581   XYZZ       4.0409   YYZZ     -71.7831
      XZZZ      -7.4263   YZZZ       8.6027   ZZZZ    -116.1258
 -----------------------------------------------------------------
 Calculating analytic gradient of the SCF energy
 Gradient of SCF Energy
            1           2           3           4           5           6
    1  -0.0037023  -0.0004707  -0.0002404  -0.0001494   0.0010418   0.0000010
    2  -0.0039415  -0.0011761   0.0014926   0.0001647   0.0000790   0.0002232
    3   0.0038973  -0.0015669  -0.0012852  -0.0002489   0.0000536  -0.0000115
            7           8           9          10          11          12
    1   0.0022768  -0.0001921  -0.0003722   0.0002751   0.0021124   0.0000912
    2  -0.0009415  -0.0002978  -0.0001875   0.0037169  -0.0013225   0.0013153
    3  -0.0001528  -0.0001541   0.0001279   0.0002505  -0.0007911  -0.0010908
           13          14          15          16          17          18
    1   0.0006506   0.0000063   0.0003071   0.0004695  -0.0015803  -0.0000113
    2  -0.0004343  -0.0001583   0.0000948  -0.0000344   0.0008240   0.0004934
    3   0.0009382   0.0001120  -0.0004250  -0.0001004   0.0003225  -0.0000247
           19          20
    1  -0.0005113  -0.0000019
    2  -0.0000716   0.0001615
    3   0.0002325  -0.0000829
 Max gradient component =       3.942E-03
 RMS gradient           =       1.223E-03
 Gradient time:  CPU 5.67 s  wall 0.71 s
 Geometry Optimization Parameters
   NAtoms,    NIC,     NZ,  NCons,   NDum,   NFix, NCnnct, MaxDiis
       20     135       0       0       0       0       0       0

 Cartesian Hessian Update
 Hessian Updated using BFGS Update


** GEOMETRY OPTIMIZATION IN DELOCALIZED INTERNAL COORDINATES **
   Searching for a Minimum

   Optimization Cycle:   5

                       Coordinates (Angstroms)
     ATOM                X               Y               Z
      1  C         2.3273409412    0.1009848062   -0.0789991307
      2  C         0.9807129283    0.7030672528    0.2025058471
      3  C        -0.1993459274   -0.2187233653   -0.1432058830
      4  H         0.9117334388    1.6487367476   -0.3506273554
      5  H         0.9477197971    0.9549790623    1.2707988918
      6  C        -1.5209478502    0.5136568495    0.1501814611
      7  C        -2.7689789872   -0.2380021324   -0.2971098030
      8  H        -1.5230100654    1.4801334952   -0.3688503798
      9  H        -1.5934141661    0.7124439157    1.2258880528
     10  O         3.3458968497    1.0150090385    0.1302316000
     11  H         4.2155098196    0.5947750179   -0.0651418842
     12  O         2.5669701934   -1.0446796048   -0.4783799470
     13  N        -0.0921035996   -1.4422203779    0.6655604213
     14  H        -0.1535750297   -0.4249657814   -1.2313120445
     15  H        -0.9136272622   -2.0344815140    0.6425810707
     16  H         0.7573343950   -1.9645097770    0.4735406063
     17  O        -3.8942298597    0.6705558266   -0.0855913912
     18  H        -2.9132511671   -1.1571907047    0.2891915238
     19  H        -2.6924195515   -0.5185646511   -1.3588301090
     20  H        -4.7337336888    0.2351785208   -0.3336054686
   Point Group: c1    Number of degrees of freedom:    54


   Energy is   -477.420715983

 Hessian Updated using BFGS Update

 54 Hessian modes will be used to form the next step
  Hessian Eigenvalues:
     0.002376    0.003089    0.003931    0.005046    0.007585    0.015435
     0.022224    0.032722    0.035358    0.038007    0.040869    0.043971
     0.048849    0.049550    0.053807    0.054118    0.056943    0.060933
     0.085037    0.098278    0.113299    0.122729    0.133662    0.136786
     0.156706    0.159948    0.160618    0.165096    0.169532    0.178083
     0.218601    0.222770    0.231496    0.252639    0.269774    0.279170
     0.288737    0.293721    0.320644    0.321614    0.322930    0.323212
     0.323689    0.324273    0.325413    0.332364    0.353353    0.398680
     0.408562    0.455035    0.494476    0.535886    0.541105    0.951453

 Minimum Search - Taking Simple RFO Step
 Searching for Lamda that Minimizes Along All modes
 Value Taken    Lamda =  -0.00038773
 Step Taken.  Stepsize is  0.233840

                             Maximum     Tolerance    Cnvgd?
         Gradient           0.003768      0.000300      NO
         Displacement       0.092373      0.001200      NO
         Energy change     -0.000276      0.000001      NO


 New Cartesian Coordinates Obtained by Inverse Iteration

 Displacement from previous Coordinates is:  0.437284
 ----------------------------------------------------------------
             Standard Nuclear Orientation (Angstroms)
    I     Atom           X                Y                Z
 ----------------------------------------------------------------
    1      C       2.3313981536     0.1203419253    -0.1212348957
    2      C       0.9841781899     0.6892877167     0.2245178739
    3      C      -0.1963516449    -0.2383038570    -0.1137715757
    4      H       0.8855006654     1.6499805181    -0.2976226887
    5      H       0.9751010071     0.9081575026     1.3011090191
    6      C      -1.5153012301     0.5017456203     0.1660086308
    7      C      -2.7606237418    -0.2325868302    -0.3177172231
    8      H      -1.4992072728     1.4758454042    -0.3397083575
    9      H      -1.6033700903     0.6879434457     1.2432427977
   10      O       3.3402589891     1.0447624422     0.0839667926
   11      H       4.2119790400     0.6441670632    -0.1308368879
   12      O       2.5791093081    -1.0196226849    -0.5309014378
   13      N      -0.1076093904    -1.4534585868     0.7052118540
   14      H      -0.1508066978    -0.4507420774    -1.2014928146
   15      H      -0.9515016497    -2.0141379036     0.7251723683
   16      H       0.7188812668    -2.0069881510     0.5032706987
   17      O      -3.8817788910     0.6833857797    -0.1223200482
   18      H      -2.9274366998    -1.1591842900     0.2527125599
   19      H      -2.6577255029    -0.4995847719    -1.3811995308
   20      H      -4.7201126001     0.2551743594    -0.3895810568
 ----------------------------------------------------------------
 Molecular Point Group                 C1    NOp =  1
 Largest Abelian Subgroup              C1    NOp =  1
 Nuclear Repulsion Energy =   463.5573312081 hartrees
 There are       36 alpha and       36 beta electrons
 Applying Cartesian multipole field
    Component          Value
    ---------          -----
     (2,0,0)        1.00000E-11
     (0,2,0)        2.00000E-11
     (0,0,2)       -3.00000E-10
 Nucleus-field energy     =     0.0000000032 hartrees
 Requested basis set is 6-31G
 There are 49 shells and 103 basis functions
 A cutoff of  1.0D-11 yielded   1042 shell pairs
 There are      4792 function pairs
 Smallest overlap matrix eigenvalue = 3.40E-03
 Guess MOs from SCF MO coefficient file

 -----------------------------------------------------------------------
  General SCF calculation program by
  Eric Jon Sundstrom, Paul Horn, Yuezhi Mao, Dmitri Zuev, Alec White,
  David Stuck, Shaama M.S., Shane Yost, Joonho Lee, David Small,
  Daniel Levine, Susi Lehtola, Hugh Burton, Evgeny Epifanovsky
 -----------------------------------------------------------------------
 Exchange:     0.2000 Hartree-Fock + 0.0800 Slater + 0.7200 B88
 Correlation:  0.1900 VWN1RPA + 0.8100 LYP
 Using SG-1 standard quadrature grid
 using 8 threads for integral computing
 -------------------------------------------------------
 OpenMP Integral computing Module                
 Release: version 1.0, May 2013, Q-Chem Inc. Pittsburgh 
 -------------------------------------------------------
 -------------------------------------------------------
 OpenMP BLAS3 based DFT computing Module                
 Release: version 1.0, May 2013, Q-Chem Inc. Pittsburgh 
 -------------------------------------------------------
 A restricted SCF calculation will be
 performed using DIIS
 SCF converges when DIIS error is below 1.0e-08
 ---------------------------------------
  Cycle       Energy         DIIS error
 ---------------------------------------
    1    -477.4186588150      8.63e-04  
    2    -477.4207807739      1.25e-04  
    3    -477.4207615893      2.20e-04  
    4    -477.4208111746      3.71e-05  
    5    -477.4208125817      1.51e-05  
    6    -477.4208128491      2.10e-06  
    7    -477.4208128564      6.62e-07  
    8    -477.4208128570      2.64e-07  
    9    -477.4208128571      9.13e-08  
   10    -477.4208128571      2.81e-08  
   11    -477.4208128571      4.77e-09  Convergence criterion met
 ---------------------------------------
 SCF time:   CPU 19.62s  wall 3.00s 
 SCF   energy in the final basis set =     -477.4208128571
 Total energy in the final basis set =     -477.4208128571
 
 --------------------------------------------------------------
 
                    Orbital Energies (a.u.)
 --------------------------------------------------------------
 
 Alpha MOs
 -- Occupied --
-19.198 -19.155 -19.140 -14.299 -10.338 -10.236 -10.223 -10.200
-10.179  -1.118  -1.032  -1.014  -0.888  -0.784  -0.758  -0.668
 -0.609  -0.575  -0.520  -0.503  -0.497  -0.483  -0.474  -0.462
 -0.438  -0.415  -0.389  -0.378  -0.364  -0.357  -0.350  -0.323
 -0.322  -0.285  -0.268  -0.217
 -- Virtual --
 -0.013   0.061   0.064   0.075   0.108   0.121   0.139   0.159
  0.164   0.171   0.180   0.206   0.209   0.221   0.242   0.249
  0.262   0.267   0.331   0.372   0.529   0.532   0.563   0.584
  0.597   0.615   0.633   0.647   0.654   0.668   0.706   0.720
  0.732   0.765   0.793   0.801   0.821   0.845   0.866   0.895
  0.903   0.907   0.925   0.932   0.950   0.960   0.977   0.982
  1.005   1.015   1.041   1.058   1.068   1.070   1.121   1.183
  1.220   1.269   1.317   1.344   1.401   1.554   1.610   1.735
  1.774   1.870   1.948
 --------------------------------------------------------------
 
          Ground-State Mulliken Net Atomic Charges

     Atom                 Charge (a.u.)
  ----------------------------------------
      1 C                     0.488363
      2 C                    -0.281426
      3 C                     0.030639
      4 H                     0.171666
      5 H                     0.195118
      6 C                    -0.231315
      7 C                    -0.037406
      8 H                     0.144913
      9 H                     0.155230
     10 O                    -0.555727
     11 H                     0.383995
     12 O                    -0.430023
     13 N                    -0.718284
     14 H                     0.115159
     15 H                     0.275636
     16 H                     0.305059
     17 O                    -0.613066
     18 H                     0.120244
     19 H                     0.124775
     20 H                     0.356449
  ----------------------------------------
  Sum of atomic charges =     0.000000

 -----------------------------------------------------------------
                    Cartesian Multipole Moments
 -----------------------------------------------------------------
    Charge (ESU x 10^10)
                 0.0000
    Dipole Moment (Debye)
         X      -0.5716      Y      -0.8869      Z      -1.1682
       Tot       1.5742
    Quadrupole Moments (Debye-Ang)
        XX     -43.4624     XY       9.8191     YY     -57.3186
        XZ       3.5064     YZ      -1.0505     ZZ     -56.8267
    Octopole Moments (Debye-Ang^2)
       XXX       7.0414    XXY     -20.0918    XYY      -6.5416
       YYY     -11.4520    XXZ     -14.0691    XYZ      -5.1137
       YYZ       1.8280    XZZ      -0.4308    YZZ       4.1100
       ZZZ      -3.6396
    Hexadecapole Moments (Debye-Ang^3)
      XXXX   -1261.5302   XXXY     126.8844   XXYY    -421.5349
      XYYY       5.3041   YYYY    -279.9314   XXXZ      50.3013
      XXYZ     -19.4716   XYYZ      -1.9477   YYYZ      -5.6684
      XXZZ    -328.4673   XYZZ       3.8404   YYZZ     -72.7973
      XZZZ      -3.7200   YZZZ      10.3039   ZZZZ    -121.5688
 -----------------------------------------------------------------
 Calculating analytic gradient of the SCF energy
 Gradient of SCF Energy
            1           2           3           4           5           6
    1  -0.0027547  -0.0002488   0.0001137   0.0002942   0.0002178   0.0007253
    2  -0.0014185  -0.0009153  -0.0005953   0.0000834   0.0003367  -0.0008492
    3  -0.0015449   0.0001624   0.0002415  -0.0003455   0.0004973  -0.0002881
            7           8           9          10          11          12
    1   0.0017160  -0.0000000  -0.0000596   0.0015518   0.0006475   0.0009962
    2  -0.0007033   0.0002535  -0.0001912   0.0017507  -0.0003431   0.0011995
    3  -0.0002433  -0.0003328   0.0003506   0.0007623  -0.0001516   0.0002882
           13          14          15          16          17          18
    1  -0.0008708  -0.0004583  -0.0006403   0.0002360  -0.0007196  -0.0000319
    2  -0.0001335   0.0002222   0.0000053   0.0002041   0.0012845   0.0000725
    3   0.0012715  -0.0005410  -0.0001480  -0.0003617   0.0004566   0.0003403
           19          20
    1  -0.0001076  -0.0006067
    2   0.0000402  -0.0003033
    3  -0.0001283  -0.0002855
 Max gradient component =       2.755E-03
 RMS gradient           =       7.630E-04
 Gradient time:  CPU 5.67 s  wall 0.71 s
 Geometry Optimization Parameters
   NAtoms,    NIC,     NZ,  NCons,   NDum,   NFix, NCnnct, MaxDiis
       20     135       0       0       0       0       0       0

 Cartesian Hessian Update
 Hessian Updated using BFGS Update


** GEOMETRY OPTIMIZATION IN DELOCALIZED INTERNAL COORDINATES **
   Searching for a Minimum

   Optimization Cycle:   6

                       Coordinates (Angstroms)
     ATOM                X               Y               Z
      1  C         2.3313981536    0.1203419253   -0.1212348957
      2  C         0.9841781899    0.6892877167    0.2245178739
      3  C        -0.1963516449   -0.2383038570   -0.1137715757
      4  H         0.8855006654    1.6499805181   -0.2976226887
      5  H         0.9751010071    0.9081575026    1.3011090191
      6  C        -1.5153012301    0.5017456203    0.1660086308
      7  C        -2.7606237418   -0.2325868302   -0.3177172231
      8  H        -1.4992072728    1.4758454042   -0.3397083575
      9  H        -1.6033700903    0.6879434457    1.2432427977
     10  O         3.3402589891    1.0447624422    0.0839667926
     11  H         4.2119790400    0.6441670632   -0.1308368879
     12  O         2.5791093081   -1.0196226849   -0.5309014378
     13  N        -0.1076093904   -1.4534585868    0.7052118540
     14  H        -0.1508066978   -0.4507420774   -1.2014928146
     15  H        -0.9515016497   -2.0141379036    0.7251723683
     16  H         0.7188812668   -2.0069881510    0.5032706987
     17  O        -3.8817788910    0.6833857797   -0.1223200482
     18  H        -2.9274366998   -1.1591842900    0.2527125599
     19  H        -2.6577255029   -0.4995847719   -1.3811995308
     20  H        -4.7201126001    0.2551743594   -0.3895810568
   Point Group: c1    Number of degrees of freedom:    54


   Energy is   -477.420812857

 Hessian Updated using BFGS Update

 54 Hessian modes will be used to form the next step
  Hessian Eigenvalues:
     0.002511    0.003698    0.004068    0.004960    0.007821    0.015401
     0.022225    0.032724    0.035355    0.037554    0.042578    0.046165
     0.048813    0.050696    0.053691    0.054120    0.059362    0.060767
     0.084458    0.095768    0.112614    0.122538    0.132835    0.136500
     0.153089    0.159835    0.160629    0.165982    0.170124    0.181905
     0.216016    0.222749    0.234702    0.259514    0.267022    0.282210
     0.292026    0.299670    0.321513    0.322651    0.322953    0.323682
     0.324257    0.324693    0.327124    0.346070    0.367184    0.395865
     0.410558    0.433176    0.493889    0.517016    0.541775    0.949479

 Minimum Search - Taking Simple RFO Step
 Searching for Lamda that Minimizes Along All modes
 Value Taken    Lamda =  -0.00017693
 Step Taken.  Stepsize is  0.081133

                             Maximum     Tolerance    Cnvgd?
         Gradient           0.003277      0.000300      NO
         Displacement       0.041351      0.001200      NO
         Energy change     -0.000097      0.000001      NO


 New Cartesian Coordinates Obtained by Inverse Iteration

 Displacement from previous Coordinates is:  0.183304
 ----------------------------------------------------------------
             Standard Nuclear Orientation (Angstroms)
[...]
   Point Group: c1    Number of degrees of freedom:    54


   Energy is   -477.420954430

 Hessian Updated using BFGS Update

 54 Hessian modes will be used to form the next step
  Hessian Eigenvalues:
     0.000532    0.001751    0.003426    0.004124    0.005336    0.015393
     0.022213    0.028948    0.036521    0.037781    0.044631    0.046876
     0.048934    0.053580    0.053770    0.054894    0.058619    0.061284
     0.085441    0.096733    0.114168    0.121407    0.134455    0.136909
     0.151264    0.160066    0.162968    0.171089    0.177603    0.186274
     0.216698    0.230933    0.238343    0.253501    0.270877    0.287674
     0.294068    0.305240    0.322473    0.322658    0.323165    0.323713
     0.324352    0.326119    0.326810    0.355214    0.371183    0.400780
     0.410665    0.435012    0.491798    0.507264    0.536911    0.947272

 Minimum Search - Taking Simple RFO Step
 Searching for Lamda that Minimizes Along All modes
 Value Taken    Lamda =   0.00000000
 Step Taken.  Stepsize is  0.016865

                             Maximum     Tolerance    Cnvgd?
         Gradient           0.000104      0.000300     YES
         Displacement       0.007642      0.001200      NO
         Energy change     -0.000002      0.000001      NO


 New Cartesian Coordinates Obtained by Inverse Iteration

 Displacement from previous Coordinates is:  0.024252
 ----------------------------------------------------------------
             Standard Nuclear Orientation (Angstroms)
    I     Atom           X                Y                Z
 ----------------------------------------------------------------
    1      C       2.3302023078     0.1081662656    -0.0928890643
    2      C       0.9867616059     0.6891411462     0.2527505326
    3      C      -0.1961294852    -0.2289152519    -0.1068025917
    4      H       0.8960651665     1.6606549860    -0.2468841841
    5      H       0.9695010100     0.8789064585     1.3346758216
    6      C      -1.5190527261     0.5095905073     0.1654594016
    7      C      -2.7583893548    -0.2265178866    -0.3331631032
    8      H      -1.4996309659     1.4865494474    -0.3334573916
    9      H      -1.6167776816     0.6893999432     1.2423959038
   10      O       3.3279775212     1.0569319333    -0.0235679220
   11      H       4.1981849930     0.6500749898    -0.2289543181
   12      O       2.5759951326    -1.0651676451    -0.4008990640
   13      N      -0.1138431830    -1.4512870505     0.6999150135
   14      H      -0.1360600764    -0.4313882764    -1.1955551917
   15      H      -0.9476289138    -2.0257348058     0.6935375215
   16      H       0.7290689225    -1.9881009037     0.5254816526
   17      O      -3.8857456540     0.6720025447    -0.1197619332
   18      H      -2.9140404439    -1.1675251799     0.2161676515
   19      H      -2.6508006427    -0.4712403065    -1.4015971714
   20      H      -4.7210763239     0.2406417090    -0.3880254853
 ----------------------------------------------------------------
 Molecular Point Group                 C1    NOp =  1
 Largest Abelian Subgroup              C1    NOp =  1
 Nuclear Repulsion Energy =   464.0283811304 hartrees
 There are       36 alpha and       36 beta electrons
 Applying Cartesian multipole field
    Component          Value
    ---------          -----
     (2,0,0)        1.00000E-11
     (0,2,0)        2.00000E-11
     (0,0,2)       -3.00000E-10
 Nucleus-field energy     =     0.0000000042 hartrees
 Requested basis set is 6-31G
 There are 49 shells and 103 basis functions
 A cutoff of  1.0D-11 yielded   1042 shell pairs
 There are      4792 function pairs
 Smallest overlap matrix eigenvalue = 3.42E-03
 Guess MOs from SCF MO coefficient file

 -----------------------------------------------------------------------
  General SCF calculation program by
  Eric Jon Sundstrom, Paul Horn, Yuezhi Mao, Dmitri Zuev, Alec White,
  David Stuck, Shaama M.S., Shane Yost, Joonho Lee, David Small,
  Daniel Levine, Susi Lehtola, Hugh Burton, Evgeny Epifanovsky
 -----------------------------------------------------------------------
 Exchange:     0.2000 Hartree-Fock + 0.0800 Slater + 0.7200 B88
 Correlation:  0.1900 VWN1RPA + 0.8100 LYP
 Using SG-1 standard quadrature grid
 using 8 threads for integral computing
 -------------------------------------------------------
 OpenMP Integral computing Module                
 Release: version 1.0, May 2013, Q-Chem Inc. Pittsburgh 
 -------------------------------------------------------
 -------------------------------------------------------
 OpenMP BLAS3 based DFT computing Module                
 Release: version 1.0, May 2013, Q-Chem Inc. Pittsburgh 
 -------------------------------------------------------
 A restricted SCF calculation will be
 performed using DIIS
 SCF converges when DIIS error is below 1.0e-08
 ---------------------------------------
  Cycle       Energy         DIIS error
 ---------------------------------------
    1    -477.4209422718      6.24e-05  
    2    -477.4209548410      6.95e-06  
    3    -477.4209549465      5.01e-06  
    4    -477.4209549643      3.03e-06  
    5    -477.4209549729      1.05e-06  
    6    -477.4209549740      2.00e-07  
    7    -477.4209549741      5.75e-08  
    8    -477.4209549741      1.94e-08  
    9    -477.4209549741      4.81e-09  Convergence criterion met
 ---------------------------------------
 SCF time:   CPU 15.91s  wall 2.00s 
 SCF   energy in the final basis set =     -477.4209549741
 Total energy in the final basis set =     -477.4209549741
 
 --------------------------------------------------------------
 
                    Orbital Energies (a.u.)
 --------------------------------------------------------------
 
 Alpha MOs
 -- Occupied --
-19.199 -19.156 -19.140 -14.296 -10.339 -10.235 -10.222 -10.200
-10.179  -1.120  -1.033  -1.015  -0.887  -0.783  -0.758  -0.668
 -0.611  -0.575  -0.520  -0.503  -0.498  -0.483  -0.475  -0.462
 -0.438  -0.414  -0.389  -0.379  -0.364  -0.357  -0.350  -0.324
 -0.322  -0.285  -0.268  -0.215
 -- Virtual --
 -0.014   0.061   0.064   0.077   0.109   0.122   0.140   0.158
  0.166   0.172   0.182   0.206   0.213   0.222   0.244   0.250
  0.263   0.268   0.331   0.372   0.529   0.532   0.563   0.585
  0.596   0.615   0.632   0.646   0.653   0.668   0.705   0.721
  0.732   0.766   0.792   0.801   0.822   0.846   0.866   0.898
  0.903   0.906   0.926   0.935   0.949   0.961   0.975   0.987
  1.005   1.015   1.043   1.059   1.070   1.071   1.123   1.187
  1.227   1.269   1.312   1.354   1.402   1.559   1.615   1.732
  1.770   1.877   1.950
 --------------------------------------------------------------
 
          Ground-State Mulliken Net Atomic Charges

     Atom                 Charge (a.u.)
  ----------------------------------------
      1 C                     0.491113
      2 C                    -0.283270
      3 C                     0.030915
      4 H                     0.170194
      5 H                     0.195823
      6 C                    -0.228868
      7 C                    -0.036296
      8 H                     0.143575
      9 H                     0.155045
     10 O                    -0.553449
     11 H                     0.384396
     12 O                    -0.431302
     13 N                    -0.721164
     14 H                     0.112499
     15 H                     0.274681
     16 H                     0.308699
     17 O                    -0.613129
     18 H                     0.119920
     19 H                     0.124035
     20 H                     0.356582
  ----------------------------------------
  Sum of atomic charges =     0.000000

 -----------------------------------------------------------------
                    Cartesian Multipole Moments
 -----------------------------------------------------------------
    Charge (ESU x 10^10)
                 0.0000
    Dipole Moment (Debye)
         X      -0.4484      Y      -0.8087      Z      -1.2769
       Tot       1.5766
    Quadrupole Moments (Debye-Ang)
        XX     -43.3293     XY       9.9268     YY     -57.6654
        XZ       3.2908     YZ      -0.4833     ZZ     -56.4210
    Octopole Moments (Debye-Ang^2)
       XXX       8.1836    XXY     -19.4766    XYY      -7.3738
       YYY     -10.5706    XXZ     -16.3189    XYZ      -3.8808
       YYZ       1.5770    XZZ       1.1458    YZZ       4.0247
       ZZZ      -4.5960
    Hexadecapole Moments (Debye-Ang^3)
      XXXX   -1260.2795   XXXY     131.7503   XXYY    -423.2589
      XYYY       7.6324   YYYY    -283.7210   XXXZ      41.8741
      XXYZ     -14.5745   XYYZ      -1.7156   YYYZ      -1.8515
      XXZZ    -323.5336   XYZZ       3.4231   YYZZ     -72.5498
      XZZZ      -5.0250   YZZZ      13.7468   ZZZZ    -117.6992
 -----------------------------------------------------------------
 Calculating analytic gradient of the SCF energy
 Gradient of SCF Energy
            1           2           3           4           5           6
    1  -0.0000412   0.0000232   0.0000104  -0.0000080   0.0000009  -0.0000338
    2  -0.0001061   0.0000101  -0.0000530   0.0000003   0.0000059   0.0000205
    3  -0.0000134  -0.0000099   0.0000298  -0.0000115  -0.0000079  -0.0000156
            7           8           9          10          11          12
    1   0.0000260  -0.0000044   0.0000014   0.0000491  -0.0000208  -0.0000148
    2  -0.0000086  -0.0000054   0.0000029   0.0000333   0.0000205   0.0000659
    3   0.0000030  -0.0000051  -0.0000016  -0.0000200  -0.0000111   0.0000080
           13          14          15          16          17          18
    1   0.0000213   0.0000017   0.0000027   0.0000117  -0.0000202   0.0000070
    2   0.0000746  -0.0000026  -0.0000130  -0.0000150  -0.0000134  -0.0000037
    3   0.0000027  -0.0000116  -0.0000014   0.0000019   0.0000593   0.0000136
           19          20
    1  -0.0000094  -0.0000029
    2  -0.0000128  -0.0000004
    3   0.0000136  -0.0000228
 Max gradient component =       1.061E-04
 RMS gradient           =       2.651E-05
 Gradient time:  CPU 5.67 s  wall 0.71 s
 Geometry Optimization Parameters
   NAtoms,    NIC,     NZ,  NCons,   NDum,   NFix, NCnnct, MaxDiis
       20     135       0       0       0       0       0       0

 Cartesian Hessian Update
 Hessian Updated using BFGS Update


** GEOMETRY OPTIMIZATION IN DELOCALIZED INTERNAL COORDINATES **
   Searching for a Minimum

   Optimization Cycle:  15

                       Coordinates (Angstroms)
     ATOM                X               Y               Z
      1  C         2.3302023078    0.1081662656   -0.0928890643
      2  C         0.9867616059    0.6891411462    0.2527505326
      3  C        -0.1961294852   -0.2289152519   -0.1068025917
      4  H         0.8960651665    1.6606549860   -0.2468841841
      5  H         0.9695010100    0.8789064585    1.3346758216
      6  C        -1.5190527261    0.5095905073    0.1654594016
      7  C        -2.7583893548   -0.2265178866   -0.3331631032
      8  H        -1.4996309659    1.4865494474   -0.3334573916
      9  H        -1.6167776816    0.6893999432    1.2423959038
     10  O         3.3279775212    1.0569319333   -0.0235679220
     11  H         4.1981849930    0.6500749898   -0.2289543181
     12  O         2.5759951326   -1.0651676451   -0.4008990640
     13  N        -0.1138431830   -1.4512870505    0.6999150135
     14  H        -0.1360600764   -0.4313882764   -1.1955551917
     15  H        -0.9476289138   -2.0257348058    0.6935375215
     16  H         0.7290689225   -1.9881009037    0.5254816526
     17  O        -3.8857456540    0.6720025447   -0.1197619332
     18  H        -2.9140404439   -1.1675251799    0.2161676515
     19  H        -2.6508006427   -0.4712403065   -1.4015971714
     20  H        -4.7210763239    0.2406417090   -0.3880254853
   Point Group: c1    Number of degrees of freedom:    54


   Energy is   -477.420954974

 Hessian Updated using BFGS Update

 54 Hessian modes will be used to form the next step
  Hessian Eigenvalues:
     0.000541    0.001723    0.002586    0.004086    0.005312    0.013825
     0.022212    0.029149    0.036398    0.037764    0.044642    0.047590
     0.048944    0.053586    0.053876    0.055116    0.059072    0.061347
     0.085451    0.096798    0.114052    0.122930    0.134608    0.137026
     0.151329    0.159763    0.162966    0.170831    0.177545    0.187398
     0.216547    0.231097    0.237994    0.253280    0.271401    0.286793
     0.294652    0.305895    0.321825    0.322660    0.323188    0.323713
     0.324353    0.326118    0.327066    0.353491    0.373513    0.401113
     0.409725    0.430201    0.489792    0.506397    0.534218    0.939524

 Minimum Search - Taking Simple RFO Step
 Searching for Lamda that Minimizes Along All modes
 Value Taken    Lamda =   0.00000000
 Step Taken.  Stepsize is  0.009235

                             Maximum     Tolerance    Cnvgd?
         Gradient           0.000042      0.000300     YES
         Displacement       0.005319      0.001200      NO
         Energy change     -0.000001      0.000001     YES

 Final energy is   -477.420954974098     


 ******************************
 **  OPTIMIZATION CONVERGED  **
 ******************************

                       Coordinates (Angstroms)
     ATOM                X               Y               Z
      1  C         2.3302023078    0.1081662656   -0.0928890643
      2  C         0.9867616059    0.6891411462    0.2527505326
      3  C        -0.1961294852   -0.2289152519   -0.1068025917
      4  H         0.8960651665    1.6606549860   -0.2468841841
      5  H         0.9695010100    0.8789064585    1.3346758216
      6  C        -1.5190527261    0.5095905073    0.1654594016
      7  C        -2.7583893548   -0.2265178866   -0.3331631032
      8  H        -1.4996309659    1.4865494474   -0.3334573916
      9  H        -1.6167776816    0.6893999432    1.2423959038
     10  O         3.3279775212    1.0569319333   -0.0235679220
     11  H         4.1981849930    0.6500749898   -0.2289543181
     12  O         2.5759951326   -1.0651676451   -0.4008990640
     13  N        -0.1138431830   -1.4512870505    0.6999150135
     14  H        -0.1360600764   -0.4313882764   -1.1955551917
     15  H        -0.9476289138   -2.0257348058    0.6935375215
     16  H         0.7290689225   -1.9881009037    0.5254816526
     17  O        -3.8857456540    0.6720025447   -0.1197619332
     18  H        -2.9140404439   -1.1675251799    0.2161676515
     19  H        -2.6508006427   -0.4712403065   -1.4015971714
     20  H        -4.7210763239    0.2406417090   -0.3880254853

Z-matrix Print:
$molecule
0 1
O 
C  1 1.237739
O  2 1.378592 1 121.412060
H  3 0.982333 2 110.218332 1 -1.158597 0
C  2 1.503939 1 126.925951 3 -179.558762 0
H  5 1.096221 2 108.150485 1 -137.046489 0
H  5 1.098577 2 107.884749 1 107.395205 0
C  5 1.539915 2 113.716609 1 -13.270046 0
H  8 1.109047 5 107.244571 2 -57.968653 0
N  8 1.466887 5 108.983719 2 64.224578 0
H  10 1.012536 8 115.031074 5 166.932217 0
H  10 1.014444 8 113.141899 5 -61.830379 0
C  8 1.539365 5 109.441181 2 -174.795383 0
H  13 1.096209 8 109.211895 5 -65.574350 0
H  13 1.097153 8 109.362863 5 51.925132 0
C  13 1.525266 8 114.138384 5 171.969571 0
H  16 1.100675 13 111.367582 8 65.727325 0
H  16 1.101370 13 110.181420 8 -54.020500 0
O  16 1.457330 13 106.447454 8 -174.182335 0
H  19 0.977658 16 110.410552 13 -177.704448 0
$end

 
 --------------------------------------------------------------
 
                    Orbital Energies (a.u.)
 --------------------------------------------------------------
 
 Alpha MOs
 -- Occupied --
-19.199 -19.156 -19.140 -14.296 -10.339 -10.235 -10.222 -10.200
-10.179  -1.120  -1.033  -1.015  -0.887  -0.783  -0.758  -0.668
 -0.611  -0.575  -0.520  -0.503  -0.498  -0.483  -0.475  -0.462
 -0.438  -0.414  -0.389  -0.379  -0.364  -0.357  -0.350  -0.324
 -0.322  -0.285  -0.268  -0.215
 -- Virtual --
 -0.014   0.061   0.064   0.077   0.109   0.122   0.140   0.158
  0.166   0.172   0.182   0.206   0.213   0.222   0.244   0.250
  0.263   0.268   0.331   0.372   0.529   0.532   0.563   0.585
  0.596   0.615   0.632   0.646   0.653   0.668   0.705   0.721
  0.732   0.766   0.792   0.801   0.822   0.846   0.866   0.898
  0.903   0.906   0.926   0.935   0.949   0.961   0.975   0.987
  1.005   1.015   1.043   1.059   1.070   1.071   1.123   1.187
  1.227   1.269   1.312   1.354   1.402   1.559   1.615   1.732
  1.770   1.877   1.950
 --------------------------------------------------------------
 
          Ground-State Mulliken Net Atomic Charges

     Atom                 Charge (a.u.)
  ----------------------------------------
      1 C                     0.491113
      2 C                    -0.283270
      3 C                     0.030915
      4 H                     0.170194
      5 H                     0.195823
      6 C                    -0.228868
      7 C                    -0.036296
      8 H                     0.143575
      9 H                     0.155045
     10 O                    -0.553449
     11 H                     0.384396
     12 O                    -0.431302
     13 N                    -0.721164
     14 H                     0.112499
     15 H                     0.274681
     16 H                     0.308699
     17 O                    -0.613129
     18 H                     0.119920
     19 H                     0.124035
     20 H                     0.356582
  ----------------------------------------
  Sum of atomic charges =     0.000000

 -----------------------------------------------------------------
                    Cartesian Multipole Moments
 -----------------------------------------------------------------
    Charge (ESU x 10^10)
                 0.0000
    Dipole Moment (Debye)
         X      -0.4484      Y      -0.8087      Z      -1.2769
       Tot       1.5766
    Quadrupole Moments (Debye-Ang)
        XX     -43.3293     XY       9.9268     YY     -57.6654
        XZ       3.2908     YZ      -0.4833     ZZ     -56.4210
    Octopole Moments (Debye-Ang^2)
       XXX       8.1836    XXY     -19.4766    XYY      -7.3738
       YYY     -10.5706    XXZ     -16.3189    XYZ      -3.8808
       YYZ       1.5770    XZZ       1.1458    YZZ       4.0247
       ZZZ      -4.5960
    Hexadecapole Moments (Debye-Ang^3)
      XXXX   -1260.2795   XXXY     131.7503   XXYY    -423.2589
      XYYY       7.6324   YYYY    -283.7210   XXXZ      41.8741
      XXYZ     -14.5745   XYYZ      -1.7156   YYYZ      -1.8515
      XXZZ    -323.5336   XYZZ       3.4231   YYZZ     -72.5498
      XZZZ      -5.0250   YZZZ      13.7468   ZZZZ    -117.6992
 -----------------------------------------------------------------
Archival summary:
1\1\cub-0-17.local\OPT\ProcedureUnspecified\6-31G\31511\c295_kri\ThuNov100:15:552018ThuNov100:15:552018\0\\#,OPT,ProcedureUnspecified,6-31G,\\0,1\O\C,1,1.23774\O,2,1.37859,1,121.412\H,3,0.982333,2,110.218,1,-1.1586,0\C,2,1.50394,1,126.926,3,-179.559,0\H,5,1.09622,2,108.15,1,-137.046,0\H,5,1.09858,2,107.885,1,107.395,0\C,5,1.53991,2,113.717,1,-13.27,0\H,8,1.10905,5,107.245,2,-57.9687,0\N,8,1.46689,5,108.984,2,64.2246,0\H,10,1.01254,8,115.031,5,166.932,0\H,10,1.01444,8,113.142,5,-61.8304,0\C,8,1.53936,5,109.441,2,-174.795,0\H,13,1.09621,8,109.212,5,-65.5744,0\H,13,1.09715,8,109.363,5,51.9251,0\C,13,1.52527,8,114.138,5,171.97,0\H,16,1.10068,13,111.368,8,65.7273,0\H,16,1.10137,13,110.181,8,-54.0205,0\O,16,1.45733,13,106.447,8,-174.182,0\H,19,0.977658,16,110.411,13,-177.704,0\\\@

 Total job time:  48.89s(wall), 389.61s(cpu) 
 Thu Nov  1 00:15:55 2018

        *************************************************************
        *                                                           *
        *  Thank you very much for using Q-Chem.  Have a nice day.  *
        *                                                           *
        *************************************************************


