
Running Job 1 of 1 SNAC_b97m.in
qchem SNAC_b97m.in_439.0 /scr/c295_krishna/157306/qchem439/ 1
/usr/software/qchem_511/exe/qcprog.exe_s SNAC_b97m.in_439.0 /scr/c295_krishna/157306/qchem439/
Check license passed

                  Welcome to Q-Chem
     A Quantum Leap Into The Future Of Chemistry


 Q-Chem 5.1, Q-Chem, Inc., Pleasanton, CA (2018)

 Yihan Shao,  Zhengting Gan,  E. Epifanovsky,  A. T. B. Gilbert,  M. Wormit,  
 J. Kussmann,  A. W. Lange,  A. Behn,  Jia Deng,  Xintian Feng,  D. Ghosh,  
 M. Goldey,  P. R. Horn,  L. D. Jacobson,  I. Kaliman,  T. Kus,  A. Landau,  
 Jie Liu,  E. I. Proynov,  R. M. Richard,  R. P. Steele,  E. J. Sundstrom,  
 H. L. Woodcock III,  P. M. Zimmerman,  D. Zuev,  B. Albrecht,  E. Alguire,  
 S. A. Baeppler,  D. Barton,  Z. Benda,  Y. A. Bernard,  E. J. Berquist,  
 K. B. Bravaya,  H. Burton,  D. Casanova,  Chun-Min Chang,  Yunqing Chen,  
 A. Chien,  K. D. Closser,  M. P. Coons,  S. Coriani,  S. Dasgupta,  
 A. L. Dempwolff,  M. Diedenhofen,  Hainam Do,  R. G. Edgar,  Po-Tung Fang,  
 S. Faraji,  S. Fatehi,  Qingguo Feng,  K. D. Fenk,  J. Fosso-Tande,  
 Qinghui Ge,  A. Ghysels,  G. Gidofalvi,  J. Gomes,  J. Gonthier,  A. Gunina,  
 D. Hait,  M. W. D. Hanson-Heine,  P. H. P. Harbach,  A. W. Hauser,  
 J. E. Herr,  E. G. Hohenstein,  Z. C. Holden,  Kerwin Hui,  B. C. Huynh,  
 T.-C. Jagau,  Hyunjun Ji,  B. Kaduk,  K. Khistyaev,  Jaehoon Kim,  
 P. Klunzinger,  K. Koh,  D. Kosenkov,  L. Koulias,  T. Kowalczyk,  
 C. M. Krauter,  A. Kunitsa,  Ka Un Lao,  A. Laurent,  K. V. Lawler,  
 Joonho Lee,  D. Lefrancois,  S. Lehtola,  D. S. Levine,  Yi-Pei Li,  
 You-Sheng Lin,  Fenglai Liu,  E. Livshits,  A. Luenser,  P. Manohar,  
 E. Mansoor,  S. F. Manzer,  Shan-Ping Mao,  Yuezhi Mao,  N. Mardirossian,  
 A. V. Marenich,  T. Markovich,  L. A. Martinez-Martinez,  S. A. Maurer,  
 N. J. Mayhall,  S. C. McKenzie,  J.-M. Mewes,  A. F. Morrison,  
 J. W. Mullinax,  K. Nanda,  T. S. Nguyen-Beck,  R. Olivares-Amaya,  
 J. A. Parkhill,  T. M. Perrine,  F. Plasser,  P. Pokhilko,  S. Prager,  
 A. Prociuk,  E. Ramos,  D. R. Rehn,  F. Rob,  M. Schneider,  N. Sergueev,  
 S. M. Sharada,  S. Sharma,  D. W. Small,  T. Stauch,  T. Stein,  
 Yu-Chuan Su,  A. J. W. Thom,  A. Tkatchenko,  T. Tsuchimochi,  N. M. Tubman,  
 L. Vogt,  M. L. Vidal,  O. Vydrov,  M. A. Watson,  J. Wenzel,  
 M. de Wergifosse,  T. A. Wesolowski,  A. White,  J. Witte,  A. Yamada,  
 Jun Yang,  K. Yao,  S. Yeganeh,  S. R. Yost,  Zhi-Qiang You,  A. Zech,  
 Igor Ying Zhang,  Xing Zhang,  Yan Zhao,  Ying Zhu,  B. R. Brooks,  
 G. K. L. Chan,  C. J. Cramer,  M. S. Gordon,  W. J. Hehre,  A. Klamt,  
 M. W. Schmidt,  C. D. Sherrill,  D. G. Truhlar,  A. Aspuru-Guzik,  R. Baer,  
 A. T. Bell,  N. A. Besley,  Jeng-Da Chai,  A. E. DePrince, III,  
 R. A. DiStasio Jr.,  A. Dreuw,  B. D. Dunietz,  T. R. Furlani,  
 Chao-Ping Hsu,  Yousung Jung,  Jing Kong,  D. S. Lambrecht,  WanZhen Liang,  
 C. Ochsenfeld,  V. A. Rassolov,  L. V. Slipchenko,  J. E. Subotnik,  
 T. Van Voorhis,  J. M. Herbert,  A. I. Krylov,  P. M. W. Gill,  M. Head-Gordon

 Contributors to earlier versions of Q-Chem not listed above: 
 R. D. Adamson,  B. Austin,  J. Baker,  G. J. O. Beran,  K. Brandhorst,  
 S. T. Brown,  E. F. C. Byrd,  A. K. Chakraborty,  C.-L. Cheng,  
 Siu Hung Chien,  D. M. Chipman,  D. L. Crittenden,  H. Dachsel,  
 R. J. Doerksen,  A. D. Dutoi,  L. Fusti-Molnar,  W. A. Goddard III,  
 A. Golubeva-Zadorozhnaya,  S. R. Gwaltney,  G. Hawkins,  A. Heyden,  
 S. Hirata,  G. Kedziora,  F. J. Keil,  C. Kelley,  Jihan Kim,  R. A. King,  
 R. Z. Khaliullin,  P. P. Korambath,  W. Kurlancheek,  A. M. Lee,  M. S. Lee,  
 S. V. Levchenko,  Ching Yeh Lin,  D. Liotard,  R. C. Lochan,  I. Lotan,  
 P. E. Maslen,  N. Nair,  D. P. O'Neill,  D. Neuhauser,  E. Neuscamman,  
 C. M. Oana,  R. Olson,  B. Peters,  R. Peverati,  P. A. Pieniazek,  
 Y. M. Rhee,  J. Ritchie,  M. A. Rohrdanz,  E. Rosta,  N. J. Russ,  
 H. F. Schaefer III,  N. E. Schultz,  N. Shenvi,  A. C. Simmonett,  A. Sodt,  
 D. Stuck,  K. S. Thanthiriwatte,  V. Vanovschi,  Tao Wang,  A. Warshel,  
 C. F. Williams,  Q. Wu,  X. Xu,  W. Zhang

 Please cite Q-Chem as follows:
 Y. Shao et al., Mol. Phys. 113, 184-215 (2015)
 DOI: 10.1080/00268976.2014.952696

 Q-Chem 5.1.1 for Intel X86 EM64T Linux

 Parts of Q-Chem use Armadillo 8.300.2 (Tropical Shenanigans).
 http://arma.sourceforge.net/

 Q-Chem begins on Tue Nov 27 22:07:45 2018  

Host: cub-0-30.local
0

     Scratch files written to /scr/c295_krishna/157306/qchem439//
 Aug318 |scratch|qcdevops|jenkins|workspace|build_RNUM -1
Processing $rem in /usr/software/qchem_511/config/preferences.
 MEM_TOTAL  2000 
Input Ideriv = 2
Curr. Ideriv = -1
Max.  Ideriv = 2
Input Ideriv = 1
Curr. Ideriv = 2
Max.  Ideriv = 1

Checking the input file for inconsistencies... 	...done.

--------------------------------------------------------------
User input:
--------------------------------------------------------------
$comment
GHSLG peptide geom opt with no constraints.
$end

$molecule
0 1
C   -3.6090300    1.2856720   -0.0352010
C   -2.2815710    1.9794240    0.0577270
H   -4.1728290    1.4354020    0.9093820
H   -3.4865850    0.1952710   -0.2049090
H   -4.1924710    1.7116110   -0.8781990
N   -1.1212570    1.2786480   -0.0634190
C    0.1746100    1.9275270    0.0244690
H   -1.1663000    0.2596880   -0.2213500
C    1.3077920    0.9160740   -0.1457980
H    0.2731950    2.4193900    1.0170590
H    0.2543550    2.6988890   -0.7726350
S    2.9251950    1.7376280   -0.0080750
H    1.2424210    0.3988500   -1.1269900
H    1.2448690    0.1393200    0.6457730
H    2.8070720    2.3482990   -1.2714010
O   -2.2601740    3.1879160    0.2448030


$end

$rem
JOBTYPE           opt
EXCHANGE        B97M-V
BASIS             6-31G*
--------------------------------------------------------------
 ----------------------------------------------------------------
             Standard Nuclear Orientation (Angstroms)
    I     Atom           X                Y                Z
 ----------------------------------------------------------------
    1      C       3.3831154594    -0.6108964032     0.0255678135
    2      C       2.0928813088     0.1550083749    -0.0020103463
    3      H       3.9772074130    -0.3696691187    -0.8807376411
    4      H       3.2047665174    -1.7065017195     0.0502370188
    5      H       3.9645114307    -0.3266868464     0.9276081189
    6      N       0.8979015627    -0.4961931745     0.0051926139
    7      C      -0.3630449417     0.2230293757    -0.0225990252
    8      H       0.8904886868    -1.5279626912     0.0306340712
    9      C      -1.5469303324    -0.7435538851    -0.0064234525
   10      H      -0.4129124920     0.8426418257    -0.9448119944
   11      H      -0.4263068026     0.8886516340     0.8660394463
   12      S      -3.1194818434     0.1692858810    -0.0673854958
   13      H      -1.5311430338    -1.3851482143     0.9005711741
   14      H      -1.5008626568    -1.4143800843    -0.8905957819
   15      H      -3.0046388512     0.6059076284     1.2664200495
   16      O       2.1336449224     1.3770501172    -0.0313443454
 ----------------------------------------------------------------
 Molecular Point Group                 C1    NOp =  1
 Largest Abelian Subgroup              C1    NOp =  1
 Nuclear Repulsion Energy =   353.4416822746 hartrees
 There are       32 alpha and       32 beta electrons
 Requested basis set is 6-31G(d)
 There are 47 shells and 127 basis functions

 Total QAlloc Memory Limit   2000 MB
 Mega-Array Size       188 MB
 MEM_STATIC part       192 MB
 A cutoff of  1.0D-11 yielded    973 shell pairs
 There are      7330 function pairs
 
 -------------------------------------------------------
 OpenMP Integral Computing Module                       
 Release: version 1.0, May 2013, Q-Chem Inc. Pittsburgh 
 -------------------------------------------------------
 Integral Job Info:
 Integral job number is                      11
 Integral operator is                         1
 short-range coefficients                     0
 long-range coefficients              100000000
 Omega coefficients                           0
 if combine SR and LR in K                    0
 Integral screening is                        0
 Integral computing path is                   2
 max size of driver memory is            800000
 size of driver memory is                593474
 size of scratch memory is             15267112
 max col of scratch BK array               1296
 max len of scratch array in speh3          155
 max len of scratch index in speh4           18
 max int batch size is                      520
 min int batch size is                       52
 fixed nKL is                                52
 max L of basis functions is                  2
 order of int derivative is                   0
 number of shells is                         47
 number of basis is                         127
 number of cartesian basis is               127
 number of contracted shell pairs           973
 number of primitive shell pairs           3891
 maxK2 (contraction) of shell pair           36
 max number of K2 of shell pair               1
 max number of CS2 of shell pair            122
 max number of PS2 of shell pair            564
 mem total for path MDJ                  525324
 -------------------------------------------------------
 Smallest overlap matrix eigenvalue = 3.14E-03

 Scale SEOQF with 1.000000e-01/1.000000e-01/1.000000e+00

 Standard Electronic Orientation quadrupole field applied
 Nucleus-field energy     =     0.0000000084 hartrees
 Guess from superposition of atomic densities
 Warning:  Energy on first SCF cycle will be non-variational
 SAD guess density has 64.000000 electrons

 -----------------------------------------------------------------------
  General SCF calculation program by
  Eric Jon Sundstrom, Paul Horn, Yuezhi Mao, Dmitri Zuev, Alec White,
  David Stuck, Shaama M.S., Shane Yost, Joonho Lee, David Small,
  Daniel Levine, Susi Lehtola, Hugh Burton, Evgeny Epifanovsky
 -----------------------------------------------------------------------
 Exchange:  B97M-V      Correlation:  B97M-V
 Using SG-2 standard quadrature grid
 Nonlocal Correlation:  VV10 with C = 0.0100 and b = 6.00 and scale = 1.00000
 Grid used for NLC:  SG-1 standard quadrature
 using 8 threads for integral computing
 -------------------------------------------------------
 OpenMP Integral computing Module                
 Release: version 1.0, May 2013, Q-Chem Inc. Pittsburgh 
 -------------------------------------------------------
 -------------------------------------------------------
 OpenMP BLAS3 based DFT computing Module                
 Release: version 1.0, May 2013, Q-Chem Inc. Pittsburgh 
 -------------------------------------------------------
 -------------------------------------------------------
 OpenMP BLAS3 based DFT computing Module                
 Release: version 1.0, May 2013, Q-Chem Inc. Pittsburgh 
 -------------------------------------------------------
 -------------------------------------------------------
 OpenMP BLAS3 based DFT computing Module                
 Release: version 1.0, May 2013, Q-Chem Inc. Pittsburgh 
 -------------------------------------------------------
 Nonlocal correlation = 0.245381239940
 A restricted SCF calculation will be
 performed using DIIS
 SCF converges when DIIS error is below 1.0e-08
 ---------------------------------------
  Cycle       Energy         DIIS error
 ---------------------------------------
 Nonlocal correlation = 2.528472456516e-01
    1    -686.7934232860      6.67e-02  
 Nonlocal correlation = 2.487596304329e-01
    2    -685.6937823555      8.89e-03  
 Nonlocal correlation = 2.507479340724e-01
    3    -685.3296646601      1.69e-02  
 Nonlocal correlation = 2.509538147453e-01
    4    -685.8048790964      4.37e-03  
 Nonlocal correlation = 2.509466970234e-01
    5    -685.8395950567      8.24e-04  
 Nonlocal correlation = 2.509463924448e-01
    6    -685.8404323447      4.78e-04  
 Nonlocal correlation = 2.509409860776e-01
    7    -685.8408885696      8.21e-05  
 Nonlocal correlation = 2.509426014692e-01
    8    -685.8409018548      1.79e-05  
 Nonlocal correlation = 2.509424202868e-01
    9    -685.8409025598      6.46e-06  
 Nonlocal correlation = 2.509424240646e-01
   10    -685.8409026380      1.89e-06  
 Nonlocal correlation = 2.509424255724e-01
   11    -685.8409026446      5.11e-07  
 Nonlocal correlation = 2.509424238887e-01
   12    -685.8409026452      1.17e-07  
 Nonlocal correlation = 2.509424219642e-01
   13    -685.8409026452      2.37e-08  
   14    -685.8409026452      5.68e-09  Convergence criterion met
 ---------------------------------------
 SCF time:   CPU 465.07s  wall 58.00s 
 SCF   energy in the final basis set =     -685.8409026452
 Total energy in the final basis set =     -685.8409026452
 
 --------------------------------------------------------------
 
                    Orbital Energies (a.u.)
 --------------------------------------------------------------
 
 Alpha MOs
 -- Occupied --
-88.973 -19.111 -14.372 -10.276 -10.237 -10.231 -10.192  -7.981
 -5.853  -5.849  -5.841  -1.015  -0.907  -0.788  -0.722  -0.672
 -0.596  -0.554  -0.474  -0.465  -0.440  -0.417  -0.393  -0.376
 -0.370  -0.359  -0.353  -0.322  -0.312  -0.227  -0.225  -0.209
 -- Virtual --
 -0.019   0.009   0.033   0.054   0.088   0.101   0.104   0.119
  0.139   0.157   0.174   0.183   0.197   0.231   0.314   0.351
  0.360   0.383   0.399   0.427   0.517   0.527   0.533   0.549
  0.561   0.607   0.622   0.635   0.649   0.687   0.704   0.719
  0.738   0.762   0.805   0.822   0.837   0.839   0.843   0.851
  0.882   0.887   0.893   0.912   0.935   0.953   1.005   1.018
  1.063   1.081   1.102   1.148   1.173   1.298   1.328   1.356
  1.421   1.423   1.499   1.613   1.665   1.704   1.822   1.839
  1.847   1.880   1.890   1.927   1.937   2.007   2.027   2.069
  2.087   2.149   2.203   2.232   2.238   2.295   2.351   2.389
  2.487   2.655   2.690   2.723   2.770   2.946   3.065   3.234
  4.029   4.092   4.177   4.283   4.318   4.558   4.646
 --------------------------------------------------------------
 
          Ground-State Mulliken Net Atomic Charges

     Atom                 Charge (a.u.)
  ----------------------------------------
      1 C                    -0.561161
      2 C                     0.630580
      3 H                     0.197167
      4 H                     0.136847
      5 H                     0.196507
      6 N                    -0.652241
      7 C                    -0.071384
      8 H                     0.333996
      9 C                    -0.488201
     10 H                     0.185020
     11 H                     0.166308
     12 S                    -0.039461
     13 H                     0.187031
     14 H                     0.190396
     15 H                     0.101428
     16 O                    -0.512831
  ----------------------------------------
  Sum of atomic charges =    -0.000000

 -----------------------------------------------------------------
                    Cartesian Multipole Moments
 -----------------------------------------------------------------
    Charge (ESU x 10^10)
                 0.0000
    Dipole Moment (Debye)
         X       0.1651      Y      -3.8083      Z       0.8704
       Tot       3.9100
    Quadrupole Moments (Debye-Ang)
        XX     -55.2265     XY      -7.1153     YY     -52.7522
        XZ      -2.4700     YZ       1.3510     ZZ     -48.0879
    Octopole Moments (Debye-Ang^2)
       XXX      42.0599    XXY      -6.7255    XYY      -5.0912
       YYY      -9.1422    XXZ       8.4255    XYZ      -3.6965
       YYZ       0.8689    XZZ       0.0961    YZZ       1.8132
       ZZZ       0.8833
    Hexadecapole Moments (Debye-Ang^3)
      XXXX   -1834.8943   XXXY     -48.0297   XXYY    -362.1079
      XYYY      -7.0138   YYYY    -206.2619   XXXZ     -25.0403
      XXYZ      13.0917   XYYZ      -1.9133   YYYZ       1.3652
      XXZZ    -289.8768   XYZZ       4.3899   YYZZ     -46.0892
      XZZZ      -3.7282   YZZZ       1.6973   ZZZZ     -75.7349
 -----------------------------------------------------------------
 Calculating analytic gradient of the SCF energy
 Gradient of SCF Energy
            1           2           3           4           5           6
    1  -0.0000148  -0.0008702   0.0067316  -0.0066209   0.0065453  -0.0056786
    2   0.0212843  -0.0220557   0.0015097  -0.0087997   0.0020587   0.0318966
    3  -0.0004599   0.0005772  -0.0118765   0.0001834   0.0118600  -0.0013467
            7           8           9          10          11          12
    1   0.0011044   0.0016895  -0.0090378  -0.0005733  -0.0018397  -0.0036973
    2  -0.0034917  -0.0217609   0.0071282   0.0031550   0.0030596  -0.0039086
    3   0.0009851   0.0004400   0.0001483  -0.0129962   0.0116962  -0.0268090
           13          14          15          16
    1  -0.0004362   0.0034233   0.0048393   0.0044356
    2  -0.0054829  -0.0071014   0.0057383  -0.0032296
    3   0.0101088  -0.0083312   0.0258368  -0.0000163
 Max gradient component =       3.190E-02
 RMS gradient           =       1.042E-02
 Gradient time:  CPU 98.23 s  wall 20.26 s
 Geometry Optimization Parameters
   NAtoms,    NIC,     NZ,  NCons,   NDum,   NFix, NCnnct, MaxDiis
       16     100       0       0       0       0       0       0


** GEOMETRY OPTIMIZATION IN DELOCALIZED INTERNAL COORDINATES **
   Searching for a Minimum

   Optimization Cycle:   1

                       Coordinates (Angstroms)
     ATOM                X               Y               Z
      1  C         3.3831154594   -0.6108964032    0.0255678135
      2  C         2.0928813088    0.1550083749   -0.0020103463
      3  H         3.9772074130   -0.3696691187   -0.8807376411
      4  H         3.2047665174   -1.7065017195    0.0502370188
      5  H         3.9645114307   -0.3266868464    0.9276081189
      6  N         0.8979015627   -0.4961931745    0.0051926139
      7  C        -0.3630449417    0.2230293757   -0.0225990252
      8  H         0.8904886868   -1.5279626912    0.0306340712
      9  C        -1.5469303324   -0.7435538851   -0.0064234525
     10  H        -0.4129124920    0.8426418257   -0.9448119944
     11  H        -0.4263068026    0.8886516340    0.8660394463
     12  S        -3.1194818434    0.1692858810   -0.0673854958
     13  H        -1.5311430338   -1.3851482143    0.9005711741
     14  H        -1.5008626568   -1.4143800843   -0.8905957819
     15  H        -3.0046388512    0.6059076284    1.2664200495
     16  O         2.1336449224    1.3770501172   -0.0313443454
   Point Group: c1    Number of degrees of freedom:    42


   Energy is   -685.840902645


 Attempting to Generate Delocalized Internal Coordinates

 42 Hessian modes will be used to form the next step
  Hessian Eigenvalues:
     0.002000    0.005417    0.008779    0.009087    0.013576    0.013874
     0.020815    0.045027    0.049074    0.056553    0.057813    0.073761
     0.075784    0.091537    0.112003    0.126709    0.137134    0.160000
     0.160000    0.160000    0.160000    0.160000    0.216424    0.219906
     0.220000    0.220080    0.246522    0.250000    0.250000    0.295679
     0.323049    0.323732    0.323802    0.324844    0.325148    0.325682
     0.325797    0.325822    0.379960    0.424609    0.527628    0.940345

 Minimum Search - Taking Simple RFO Step
 Searching for Lamda that Minimizes Along All modes
 Value Taken    Lamda =  -0.01253045
 Step Taken.  Stepsize is  0.251390

                             Maximum     Tolerance    Cnvgd?
         Gradient           0.026875      0.000300      NO
         Displacement       0.117882      0.001200      NO
         Energy change     *********      0.000001      NO


 New Cartesian Coordinates Obtained by Inverse Iteration

 Displacement from previous Coordinates is:  0.424579
 ----------------------------------------------------------------
             Standard Nuclear Orientation (Angstroms)
    I     Atom           X                Y                Z
 ----------------------------------------------------------------
    1      C       3.3368431449    -0.6440472657     0.0188058586
    2      C       2.0884840205     0.1956186399    -0.0020535083
    3      H       3.9298877218    -0.4070549370    -0.8631021473
    4      H       3.1630888113    -1.7250657066     0.0370065898
    5      H       3.9218315690    -0.3758186183     0.8972139747
    6      N       0.9107883757    -0.4774031874     0.0066907273
    7      C      -0.3451420586     0.2374586120    -0.0123941029
    8      H       0.9037774202    -1.4829048611     0.0291613405
    9      C      -1.5018992234    -0.7451758164     0.0111829620
   10      H      -0.4053609342     0.8655006616    -0.9041632006
   11      H      -0.3969028689     0.9046501362     0.8534804054
   12      S      -3.1168941381     0.0905934643    -0.0478555565
   13      H      -1.4550751997    -1.3855934478     0.8958968032
   14      H      -1.4639113263    -1.4018651148    -0.8623290624
   15      H      -3.0571996811     0.6120754329     1.1921522426
   16      O       2.1268807141     1.4196147079    -0.0233311026
 ----------------------------------------------------------------
 Molecular Point Group                 C1    NOp =  1
 Largest Abelian Subgroup              C1    NOp =  1
 Nuclear Repulsion Energy =   355.1367946359 hartrees
 There are       32 alpha and       32 beta electrons
 Applying Cartesian multipole field
    Component          Value
    ---------          -----
     (2,0,0)        1.00000E-11
     (0,2,0)        2.00000E-11
     (0,0,2)       -3.00000E-10
 Nucleus-field energy     =     0.0000000089 hartrees
 Requested basis set is 6-31G(d)
 There are 47 shells and 127 basis functions
 A cutoff of  1.0D-11 yielded    980 shell pairs
 There are      7386 function pairs
 Smallest overlap matrix eigenvalue = 3.14E-03
 Guess MOs from SCF MO coefficient file

 -----------------------------------------------------------------------
  General SCF calculation program by
  Eric Jon Sundstrom, Paul Horn, Yuezhi Mao, Dmitri Zuev, Alec White,
  David Stuck, Shaama M.S., Shane Yost, Joonho Lee, David Small,
  Daniel Levine, Susi Lehtola, Hugh Burton, Evgeny Epifanovsky
 -----------------------------------------------------------------------
 Exchange:  B97M-V      Correlation:  B97M-V
 Using SG-2 standard quadrature grid
 Nonlocal Correlation:  VV10 with C = 0.0100 and b = 6.00 and scale = 1.00000
 Grid used for NLC:  SG-1 standard quadrature
 using 8 threads for integral computing
 -------------------------------------------------------
 OpenMP Integral computing Module                
 Release: version 1.0, May 2013, Q-Chem Inc. Pittsburgh 
 -------------------------------------------------------
 -------------------------------------------------------
 OpenMP BLAS3 based DFT computing Module                
 Release: version 1.0, May 2013, Q-Chem Inc. Pittsburgh 
 -------------------------------------------------------
 -------------------------------------------------------
 OpenMP BLAS3 based DFT computing Module                
 Release: version 1.0, May 2013, Q-Chem Inc. Pittsburgh 
 -------------------------------------------------------
 -------------------------------------------------------
 OpenMP BLAS3 based DFT computing Module                
 Release: version 1.0, May 2013, Q-Chem Inc. Pittsburgh 
 -------------------------------------------------------
 Nonlocal correlation = 0.250929362370
 A restricted SCF calculation will be
 performed using DIIS
 SCF converges when DIIS error is below 1.0e-08
 ---------------------------------------
  Cycle       Energy         DIIS error
 ---------------------------------------
 Nonlocal correlation = 2.511866154835e-01
    1    -685.8438216397      9.99e-04  
 Nonlocal correlation = 2.510496747842e-01
    2    -685.8471474650      4.23e-04  
 Nonlocal correlation = 2.510994429209e-01
    3    -685.8472705873      3.59e-04  
 Nonlocal correlation = 2.510975764464e-01
    4    -685.8474820742      1.09e-04  
 Nonlocal correlation = 2.510994602599e-01
    5    -685.8475010201      3.26e-05  
 Nonlocal correlation = 2.510994052424e-01
    6    -685.8475027710      1.09e-05  
 Nonlocal correlation = 2.510992999590e-01
    7    -685.8475030018      2.26e-06  
 Nonlocal correlation = 2.510993369611e-01
    8    -685.8475030117      4.60e-07  
 Nonlocal correlation = 2.510993231635e-01
    9    -685.8475030121      1.88e-07  
 Nonlocal correlation = 2.510993216191e-01
   10    -685.8475030122      3.63e-08  
   11    -685.8475030122      9.88e-09  Convergence criterion met
 ---------------------------------------
 SCF time:   CPU 365.08s  wall 46.00s 
 SCF   energy in the final basis set =     -685.8475030122
 Total energy in the final basis set =     -685.8475030122
 
 --------------------------------------------------------------
 
                    Orbital Energies (a.u.)
 --------------------------------------------------------------
 
 Alpha MOs
 -- Occupied --
-88.967 -19.115 -14.370 -10.278 -10.232 -10.225 -10.185  -7.976
 -5.849  -5.844  -5.837  -1.016  -0.914  -0.791  -0.727  -0.676
 -0.603  -0.562  -0.478  -0.467  -0.444  -0.419  -0.398  -0.375
 -0.374  -0.362  -0.359  -0.319  -0.313  -0.229  -0.225  -0.214
 -- Virtual --
 -0.003   0.011   0.040   0.060   0.093   0.107   0.111   0.126
  0.143   0.161   0.178   0.189   0.202   0.227   0.311   0.347
  0.362   0.381   0.398   0.430   0.511   0.522   0.536   0.544
  0.554   0.611   0.612   0.647   0.656   0.681   0.710   0.723
  0.738   0.771   0.810   0.828   0.846   0.848   0.852   0.860
  0.894   0.897   0.906   0.921   0.942   0.961   1.004   1.022
  1.066   1.097   1.121   1.140   1.175   1.309   1.326   1.351
  1.418   1.426   1.491   1.625   1.664   1.718   1.827   1.838
  1.841   1.882   1.898   1.916   1.946   2.012   2.034   2.076
  2.103   2.184   2.200   2.245   2.259   2.310   2.358   2.420
  2.480   2.660   2.692   2.733   2.758   2.962   3.071   3.240
  4.033   4.096   4.191   4.311   4.326   4.566   4.664
 --------------------------------------------------------------
 
          Ground-State Mulliken Net Atomic Charges

     Atom                 Charge (a.u.)
  ----------------------------------------
      1 C                    -0.577167
      2 C                     0.631330
      3 H                     0.198517
      4 H                     0.147911
      5 H                     0.197786
      6 N                    -0.645478
      7 C                    -0.077375
      8 H                     0.338519
      9 C                    -0.492602
     10 H                     0.187765
     11 H                     0.169427
     12 S                    -0.052823
     13 H                     0.189665
     14 H                     0.194527
     15 H                     0.107123
     16 O                    -0.517124
  ----------------------------------------
  Sum of atomic charges =     0.000000

 -----------------------------------------------------------------
                    Cartesian Multipole Moments
 -----------------------------------------------------------------
    Charge (ESU x 10^10)
                 0.0000
    Dipole Moment (Debye)
         X       0.2686      Y      -3.7399      Z       0.9129
       Tot       3.8591
    Quadrupole Moments (Debye-Ang)
        XX     -55.4416     XY      -7.7481     YY     -52.4809
        XZ      -2.7313     YZ       1.4244     ZZ     -48.2537
    Octopole Moments (Debye-Ang^2)
       XXX      40.4944    XXY      -5.8325    XYY      -5.1180
       YYY      -7.6565    XXZ       8.9770    XYZ      -4.1794
       YYZ       0.4264    XZZ       0.3016    YZZ       2.2731
       ZZZ       0.0048
    Hexadecapole Moments (Debye-Ang^3)
      XXXX   -1811.2163   XXXY     -65.4609   XXYY    -357.2262
      XYYY     -19.7208   YYYY    -209.1670   XXXZ     -26.9081
      XXYZ      14.2309   XYYZ      -0.9400   YYYZ       1.2694
      XXZZ    -288.2894   XYZZ       1.0276   YYZZ     -46.0325
      XZZZ      -1.7603   YZZZ       1.6438   ZZZZ     -73.7288
 -----------------------------------------------------------------
 Calculating analytic gradient of the SCF energy
 Gradient of SCF Energy
            1           2           3           4           5           6
    1   0.0013774  -0.0010245  -0.0016117   0.0006904  -0.0016029  -0.0001428
    2   0.0043149  -0.0078012  -0.0006098  -0.0023835  -0.0006292   0.0030702
    3  -0.0000219  -0.0001612   0.0001463   0.0000680  -0.0001248   0.0000926
            7           8           9          10          11          12
    1   0.0024765  -0.0000111  -0.0011120  -0.0001861  -0.0001278  -0.0001050
    2   0.0027655  -0.0011217  -0.0026958  -0.0010032  -0.0010884   0.0023830
    3  -0.0002147   0.0000652  -0.0016876  -0.0003558   0.0005966   0.0010426
           13          14          15          16
    1  -0.0001878   0.0015031  -0.0005042   0.0005687
    2   0.0003894  -0.0009899  -0.0004155   0.0058152
    3   0.0000041   0.0004973   0.0001136  -0.0000604
 Max gradient component =       7.801E-03
 RMS gradient           =       1.927E-03
 Gradient time:  CPU 98.12 s  wall 20.30 s
 Geometry Optimization Parameters
   NAtoms,    NIC,     NZ,  NCons,   NDum,   NFix, NCnnct, MaxDiis
       16     100       0       0       0       0       0       0

 Cartesian Hessian Update
 Hessian Updated using BFGS Update


** GEOMETRY OPTIMIZATION IN DELOCALIZED INTERNAL COORDINATES **
   Searching for a Minimum

   Optimization Cycle:   2

                       Coordinates (Angstroms)
     ATOM                X               Y               Z
      1  C         3.3368431449   -0.6440472657    0.0188058586
      2  C         2.0884840205    0.1956186399   -0.0020535083
      3  H         3.9298877218   -0.4070549370   -0.8631021473
      4  H         3.1630888113   -1.7250657066    0.0370065898
      5  H         3.9218315690   -0.3758186183    0.8972139747
      6  N         0.9107883757   -0.4774031874    0.0066907273
      7  C        -0.3451420586    0.2374586120   -0.0123941029
      8  H         0.9037774202   -1.4829048611    0.0291613405
      9  C        -1.5018992234   -0.7451758164    0.0111829620
     10  H        -0.4053609342    0.8655006616   -0.9041632006
     11  H        -0.3969028689    0.9046501362    0.8534804054
     12  S        -3.1168941381    0.0905934643   -0.0478555565
     13  H        -1.4550751997   -1.3855934478    0.8958968032
     14  H        -1.4639113263   -1.4018651148   -0.8623290624
     15  H        -3.0571996811    0.6120754329    1.1921522426
     16  O         2.1268807141    1.4196147079   -0.0233311026
   Point Group: c1    Number of degrees of freedom:    42


   Energy is   -685.847503012

 Hessian Updated using BFGS Update

 39 Hessian modes will be used to form the next step
  Hessian Eigenvalues:
     0.002012    0.005417    0.008777    0.009087    0.013576    0.013875
     0.020814    0.045030    0.048772    0.056337    0.057854    0.073761
     0.075688    0.091318    0.111605    0.126741    0.136293    0.159270
     0.165003    0.211065    0.219556    0.220037    0.225497    0.244578
     0.249834    0.250373    0.294734    0.319994    0.323764    0.323774
     0.324248    0.324976    0.325350    0.325810    0.337231    0.382688
     0.422327    0.529953    0.947344

 Minimum Search - Taking Simple RFO Step
 Searching for Lamda that Minimizes Along All modes
 Value Taken    Lamda =  -0.00062587
 Calculated Step too Large.  Step scaled by  0.887910
 Step Taken.  Stepsize is  0.300000

                             Maximum     Tolerance    Cnvgd?
         Gradient           0.003951      0.000300      NO
         Displacement       0.142748      0.001200      NO
         Energy change     -0.006600      0.000001      NO


 New Cartesian Coordinates Obtained by Inverse Iteration

 Displacement from previous Coordinates is:  0.360864
 ----------------------------------------------------------------
             Standard Nuclear Orientation (Angstroms)
    I     Atom           X                Y                Z
 ----------------------------------------------------------------
    1      C       3.3339050193    -0.6392351845     0.0127712570
    2      C       2.0829754207     0.2005828390     0.0101422712
    3      H       3.9315778797    -0.3853628322    -0.8630491346
    4      H       3.1533932907    -1.7157515833     0.0101586799
    5      H       3.9264369406    -0.3882061090     0.8929514019
    6      N       0.9080878927    -0.4809470443     0.0074903608
    7      C      -0.3557126445     0.2248844209     0.0008909248
    8      H       0.9083327845    -1.4851049436     0.0147982353
    9      C      -1.5024881550    -0.7662275901     0.0240357353
   10      H      -0.4241544729     0.8639679737    -0.8826243327
   11      H      -0.4066572905     0.8895653752     0.8688416201
   12      S      -3.1314791737     0.0358740117    -0.0328593309
   13      H      -1.4425993643    -1.4165327127     0.9008601578
   14      H      -1.4699227009    -1.4107160697    -0.8580282633
   15      H      -2.9870084842     0.7318176425     1.1101905651
   16      O       2.1145094050     1.4219745059     0.0097920760
 ----------------------------------------------------------------
 Molecular Point Group                 C1    NOp =  1
 Largest Abelian Subgroup              C1    NOp =  1
 Nuclear Repulsion Energy =   355.1025258160 hartrees
 There are       32 alpha and       32 beta electrons
 Applying Cartesian multipole field
    Component          Value
    ---------          -----
     (2,0,0)        1.00000E-11
     (0,2,0)        2.00000E-11
     (0,0,2)       -3.00000E-10
 Nucleus-field energy     =     0.0000000091 hartrees
 Requested basis set is 6-31G(d)
 There are 47 shells and 127 basis functions
 A cutoff of  1.0D-11 yielded    982 shell pairs
 There are      7386 function pairs
 Smallest overlap matrix eigenvalue = 3.15E-03
 Guess MOs from SCF MO coefficient file

 -----------------------------------------------------------------------
  General SCF calculation program by
  Eric Jon Sundstrom, Paul Horn, Yuezhi Mao, Dmitri Zuev, Alec White,
  David Stuck, Shaama M.S., Shane Yost, Joonho Lee, David Small,
  Daniel Levine, Susi Lehtola, Hugh Burton, Evgeny Epifanovsky
 -----------------------------------------------------------------------
 Exchange:  B97M-V      Correlation:  B97M-V
 Using SG-2 standard quadrature grid
 Nonlocal Correlation:  VV10 with C = 0.0100 and b = 6.00 and scale = 1.00000
 Grid used for NLC:  SG-1 standard quadrature
 using 8 threads for integral computing
 -------------------------------------------------------
 OpenMP Integral computing Module                
 Release: version 1.0, May 2013, Q-Chem Inc. Pittsburgh 
 -------------------------------------------------------
 -------------------------------------------------------
 OpenMP BLAS3 based DFT computing Module                
 Release: version 1.0, May 2013, Q-Chem Inc. Pittsburgh 
 -------------------------------------------------------
 -------------------------------------------------------
 OpenMP BLAS3 based DFT computing Module                
 Release: version 1.0, May 2013, Q-Chem Inc. Pittsburgh 
 -------------------------------------------------------
 -------------------------------------------------------
 OpenMP BLAS3 based DFT computing Module                
 Release: version 1.0, May 2013, Q-Chem Inc. Pittsburgh 
 -------------------------------------------------------
 Nonlocal correlation = 0.251098978548
 A restricted SCF calculation will be
 performed using DIIS
 SCF converges when DIIS error is below 1.0e-08
 ---------------------------------------
  Cycle       Energy         DIIS error
 ---------------------------------------
 Nonlocal correlation = 2.511098658251e-01
    1    -685.8432604069      9.58e-04  
 Nonlocal correlation = 2.510987329071e-01
    2    -685.8477625269      1.17e-04  
 Nonlocal correlation = 2.511084730568e-01
    3    -685.8477595064      1.40e-04  
 Nonlocal correlation = 2.511049008059e-01
    4    -685.8477895718      6.74e-05  
 Nonlocal correlation = 2.511052222989e-01
    5    -685.8477971054      1.20e-05  
 Nonlocal correlation = 2.511053472945e-01
    6    -685.8477973775      4.19e-06  
 Nonlocal correlation = 2.511052621009e-01
    7    -685.8477974136      9.51e-07  
 Nonlocal correlation = 2.511052816680e-01
    8    -685.8477974154      2.55e-07  
 Nonlocal correlation = 2.511052797872e-01
    9    -685.8477974155      6.91e-08  
 Nonlocal correlation = 2.511052802075e-01
   10    -685.8477974155      2.54e-08  
   11    -685.8477974155      4.82e-09  Convergence criterion met
 ---------------------------------------
 SCF time:   CPU 364.35s  wall 46.00s 
 SCF   energy in the final basis set =     -685.8477974155
 Total energy in the final basis set =     -685.8477974155
 
 --------------------------------------------------------------
 
                    Orbital Energies (a.u.)
 --------------------------------------------------------------
 
 Alpha MOs
 -- Occupied --
-88.967 -19.116 -14.370 -10.278 -10.232 -10.226 -10.186  -7.976
 -5.848  -5.844  -5.836  -1.018  -0.914  -0.791  -0.727  -0.676
 -0.604  -0.563  -0.479  -0.467  -0.444  -0.418  -0.399  -0.376
 -0.374  -0.363  -0.359  -0.320  -0.314  -0.230  -0.224  -0.215
 -- Virtual --
 -0.002   0.011   0.041   0.061   0.091   0.106   0.110   0.126
  0.145   0.161   0.177   0.187   0.203   0.226   0.310   0.350
  0.363   0.382   0.396   0.427   0.511   0.523   0.534   0.543
  0.549   0.610   0.612   0.647   0.655   0.682   0.707   0.721
  0.735   0.774   0.808   0.830   0.846   0.848   0.852   0.863
  0.893   0.896   0.906   0.922   0.942   0.959   1.007   1.023
  1.069   1.096   1.116   1.145   1.174   1.308   1.327   1.352
  1.419   1.427   1.492   1.623   1.662   1.715   1.826   1.837
  1.840   1.878   1.900   1.914   1.944   2.009   2.032   2.075
  2.102   2.182   2.202   2.247   2.261   2.310   2.360   2.420
  2.479   2.657   2.691   2.735   2.757   2.962   3.072   3.239
  4.032   4.093   4.191   4.313   4.326   4.566   4.663
 --------------------------------------------------------------
 
          Ground-State Mulliken Net Atomic Charges

     Atom                 Charge (a.u.)
  ----------------------------------------
      1 C                    -0.578440
      2 C                     0.632025
      3 H                     0.198224
      4 H                     0.149030
      5 H                     0.197372
      6 N                    -0.646335
      7 C                    -0.081364
      8 H                     0.339040
      9 C                    -0.489962
     10 H                     0.188290
     11 H                     0.169159
     12 S                    -0.051294
     13 H                     0.189850
     14 H                     0.194119
     15 H                     0.105088
     16 O                    -0.514802
  ----------------------------------------
  Sum of atomic charges =     0.000000

 -----------------------------------------------------------------
                    Cartesian Multipole Moments
 -----------------------------------------------------------------
    Charge (ESU x 10^10)
                 0.0000
    Dipole Moment (Debye)
         X       0.3850      Y      -3.5956      Z       0.7710
       Tot       3.6974
    Quadrupole Moments (Debye-Ang)
        XX     -55.6427     XY      -8.0096     YY     -52.0783
        XZ      -2.4314     YZ       1.5611     ZZ     -48.7104
    Octopole Moments (Debye-Ang^2)
       XXX      43.7421    XXY      -4.1293    XYY      -5.7685
       YYY      -5.0602    XXZ       6.3483    XYZ      -5.1341
       YYZ      -0.3476    XZZ       1.9635    YZZ       3.0407
       ZZZ      -1.5062
    Hexadecapole Moments (Debye-Ang^3)
      XXXX   -1816.3041   XXXY     -72.5811   XXYY    -354.6379
      XYYY     -27.3627   YYYY    -209.6145   XXXZ     -18.9809
      XXYZ      15.5111   XYYZ      -0.9469   YYYZ       0.2528
      XXZZ    -293.2268   XYZZ      -1.0788   YYZZ     -45.9448
      XZZZ      -0.6032   YZZZ       0.6975   ZZZZ     -73.9690
 -----------------------------------------------------------------
 Calculating analytic gradient of the SCF energy
 Gradient of SCF Energy
            1           2           3           4           5           6
    1   0.0004853  -0.0008807  -0.0003458   0.0002127  -0.0003652   0.0005243
    2   0.0011694  -0.0032823  -0.0002608  -0.0001932  -0.0002307   0.0005607
    3  -0.0000421   0.0000144   0.0000091  -0.0000184  -0.0000043  -0.0001397
            7           8           9          10          11          12
    1   0.0008473   0.0002038  -0.0000928  -0.0000732  -0.0002503  -0.0002585
    2   0.0016717   0.0002530  -0.0011621  -0.0003351  -0.0004058   0.0007586
    3   0.0004477   0.0000888  -0.0009218   0.0002785  -0.0002970   0.0009652
           13          14          15          16
    1  -0.0004929   0.0002581  -0.0001449   0.0003728
    2   0.0001318  -0.0001456  -0.0003344   0.0018047
    3  -0.0002470   0.0005103  -0.0005652  -0.0000785
 Max gradient component =       3.282E-03
 RMS gradient           =       7.481E-04
 Gradient time:  CPU 98.15 s  wall 20.31 s
 Geometry Optimization Parameters
   NAtoms,    NIC,     NZ,  NCons,   NDum,   NFix, NCnnct, MaxDiis
       16     100       0       0       0       0       0       0

 Cartesian Hessian Update
 Hessian Updated using BFGS Update


** GEOMETRY OPTIMIZATION IN DELOCALIZED INTERNAL COORDINATES **
   Searching for a Minimum

   Optimization Cycle:   3

                       Coordinates (Angstroms)
     ATOM                X               Y               Z
      1  C         3.3339050193   -0.6392351845    0.0127712570
      2  C         2.0829754207    0.2005828390    0.0101422712
      3  H         3.9315778797   -0.3853628322   -0.8630491346
      4  H         3.1533932907   -1.7157515833    0.0101586799
      5  H         3.9264369406   -0.3882061090    0.8929514019
      6  N         0.9080878927   -0.4809470443    0.0074903608
      7  C        -0.3557126445    0.2248844209    0.0008909248
      8  H         0.9083327845   -1.4851049436    0.0147982353
      9  C        -1.5024881550   -0.7662275901    0.0240357353
     10  H        -0.4241544729    0.8639679737   -0.8826243327
     11  H        -0.4066572905    0.8895653752    0.8688416201
     12  S        -3.1314791737    0.0358740117   -0.0328593309
     13  H        -1.4425993643   -1.4165327127    0.9008601578
     14  H        -1.4699227009   -1.4107160697   -0.8580282633
     15  H        -2.9870084842    0.7318176425    1.1101905651
     16  O         2.1145094050    1.4219745059    0.0097920760
   Point Group: c1    Number of degrees of freedom:    42


   Energy is   -685.847797416

 Hessian Updated using BFGS Update

 40 Hessian modes will be used to form the next step
  Hessian Eigenvalues:
     0.002610    0.005415    0.008591    0.009087    0.013562    0.013920
     0.020798    0.044519    0.046692    0.056558    0.057756    0.073761
     0.074794    0.090302    0.113557    0.126779    0.132498    0.157458
     0.160319    0.163440    0.205540    0.219855    0.220702    0.223167
     0.242037    0.250029    0.250787    0.292600    0.321836    0.323770
     0.324114    0.324924    0.325027    0.325810    0.326669    0.333774
     0.386442    0.423812    0.525469    0.921644

 Minimum Search - Taking Simple RFO Step
 Searching for Lamda that Minimizes Along All modes
 Value Taken    Lamda =  -0.00006732
 Step Taken.  Stepsize is  0.058897

                             Maximum     Tolerance    Cnvgd?
         Gradient           0.001302      0.000300      NO
         Displacement       0.026874      0.001200      NO
         Energy change     -0.000294      0.000001      NO


 New Cartesian Coordinates Obtained by Inverse Iteration

 Displacement from previous Coordinates is:  0.099993
 ----------------------------------------------------------------
             Standard Nuclear Orientation (Angstroms)
    I     Atom           X                Y                Z
 ----------------------------------------------------------------
    1      C       3.3306125543    -0.6397571945     0.0162245448
    2      C       2.0812269660     0.2037816026     0.0113300790
    3      H       3.9380047099    -0.3781212053    -0.8511641504
    4      H       3.1452809176    -1.7146605863     0.0020422929
    5      H       3.9189201465    -0.3977065811     0.9023130351
    6      N       0.9069086534    -0.4810037661    -0.0033271901
    7      C      -0.3574870679     0.2232924310    -0.0085172929
    8      H       0.9072985309    -1.4852375101    -0.0014079669
    9      C      -1.5004831037    -0.7678341452     0.0300926111
   10      H      -0.4307133165     0.8596447128    -0.8944712422
   11      H      -0.4011159429     0.8938412927     0.8563302912
   12      S      -3.1325258817     0.0248349879    -0.0203400625
   13      H      -1.4261438652    -1.4163951126     0.9076648731
   14      H      -1.4767498502    -1.4119969097    -0.8530433719
   15      H      -2.9741795481     0.7442120593     1.1080252844
   16      O       2.1103424450     1.4236886244     0.0246104889
 ----------------------------------------------------------------
 Molecular Point Group                 C1    NOp =  1
 Largest Abelian Subgroup              C1    NOp =  1
 Nuclear Repulsion Energy =   355.2177298751 hartrees
 There are       32 alpha and       32 beta electrons
 Applying Cartesian multipole field
    Component          Value
    ---------          -----
     (2,0,0)        1.00000E-11
     (0,2,0)        2.00000E-11
     (0,0,2)       -3.00000E-10
 Nucleus-field energy     =     0.0000000091 hartrees
 Requested basis set is 6-31G(d)
 There are 47 shells and 127 basis functions
 A cutoff of  1.0D-11 yielded    982 shell pairs
 There are      7386 function pairs
 Smallest overlap matrix eigenvalue = 3.15E-03
 Guess MOs from SCF MO coefficient file

 -----------------------------------------------------------------------
  General SCF calculation program by
  Eric Jon Sundstrom, Paul Horn, Yuezhi Mao, Dmitri Zuev, Alec White,
  David Stuck, Shaama M.S., Shane Yost, Joonho Lee, David Small,
  Daniel Levine, Susi Lehtola, Hugh Burton, Evgeny Epifanovsky
 -----------------------------------------------------------------------
 Exchange:  B97M-V      Correlation:  B97M-V
 Using SG-2 standard quadrature grid
 Nonlocal Correlation:  VV10 with C = 0.0100 and b = 6.00 and scale = 1.00000
 Grid used for NLC:  SG-1 standard quadrature
 using 8 threads for integral computing
 -------------------------------------------------------
 OpenMP Integral computing Module                
 Release: version 1.0, May 2013, Q-Chem Inc. Pittsburgh 
 -------------------------------------------------------
 -------------------------------------------------------
 OpenMP BLAS3 based DFT computing Module                
 Release: version 1.0, May 2013, Q-Chem Inc. Pittsburgh 
 -------------------------------------------------------
 -------------------------------------------------------
 OpenMP BLAS3 based DFT computing Module                
 Release: version 1.0, May 2013, Q-Chem Inc. Pittsburgh 
 -------------------------------------------------------
 -------------------------------------------------------
 OpenMP BLAS3 based DFT computing Module                
 Release: version 1.0, May 2013, Q-Chem Inc. Pittsburgh 
 -------------------------------------------------------
 Nonlocal correlation = 0.251088879646
 A restricted SCF calculation will be
 performed using DIIS
 SCF converges when DIIS error is below 1.0e-08
 ---------------------------------------
  Cycle       Energy         DIIS error
 ---------------------------------------
 Nonlocal correlation = 2.510909030131e-01
    1    -685.8475138575      2.82e-04  
 Nonlocal correlation = 2.510845074744e-01
    2    -685.8478302141      4.90e-05  
 Nonlocal correlation = 2.510899459595e-01
    3    -685.8478208854      9.02e-05  
 Nonlocal correlation = 2.510892372172e-01
    4    -685.8478339555      1.71e-05  
 Nonlocal correlation = 2.510891082359e-01
    5    -685.8478344784      3.84e-06  
 Nonlocal correlation = 2.510891762330e-01
    6    -685.8478345091      1.15e-06  
 Nonlocal correlation = 2.510891548931e-01
    7    -685.8478345117      3.13e-07  
 Nonlocal correlation = 2.510891600744e-01
    8    -685.8478345119      9.17e-08  
 Nonlocal correlation = 2.510891593834e-01
    9    -685.8478345119      2.07e-08  
   10    -685.8478345119      7.84e-09  Convergence criterion met
 ---------------------------------------
 SCF time:   CPU 331.81s  wall 41.00s 
 SCF   energy in the final basis set =     -685.8478345119
 Total energy in the final basis set =     -685.8478345119
 
 --------------------------------------------------------------
 
                    Orbital Energies (a.u.)
 --------------------------------------------------------------
 
 Alpha MOs
 -- Occupied --
-88.967 -19.117 -14.370 -10.278 -10.232 -10.226 -10.186  -7.976
 -5.848  -5.844  -5.836  -1.019  -0.914  -0.792  -0.727  -0.676
 -0.603  -0.563  -0.479  -0.467  -0.444  -0.418  -0.398  -0.377
 -0.375  -0.364  -0.359  -0.320  -0.314  -0.230  -0.224  -0.216
 -- Virtual --
 -0.002   0.011   0.041   0.062   0.091   0.106   0.110   0.126
  0.145   0.160   0.177   0.188   0.204   0.225   0.310   0.351
  0.363   0.382   0.396   0.427   0.511   0.524   0.534   0.543
  0.549   0.611   0.612   0.648   0.656   0.682   0.707   0.721
  0.735   0.774   0.808   0.830   0.845   0.847   0.852   0.863
  0.892   0.896   0.906   0.922   0.942   0.959   1.007   1.024
  1.071   1.097   1.115   1.145   1.174   1.307   1.326   1.352
  1.420   1.428   1.492   1.623   1.663   1.715   1.825   1.836
  1.839   1.878   1.902   1.913   1.945   2.009   2.033   2.075
  2.105   2.182   2.202   2.248   2.262   2.310   2.361   2.421
  2.478   2.657   2.691   2.736   2.755   2.963   3.073   3.239
  4.032   4.092   4.191   4.315   4.326   4.566   4.664
 --------------------------------------------------------------
 
          Ground-State Mulliken Net Atomic Charges

     Atom                 Charge (a.u.)
  ----------------------------------------
      1 C                    -0.579102
      2 C                     0.632598
      3 H                     0.197895
      4 H                     0.149538
      5 H                     0.197208
      6 N                    -0.646791
      7 C                    -0.081583
      8 H                     0.339054
      9 C                    -0.489555
     10 H                     0.187496
     11 H                     0.169316
     12 S                    -0.050536
     13 H                     0.189676
     14 H                     0.193590
     15 H                     0.104718
     16 O                    -0.513522
  ----------------------------------------
  Sum of atomic charges =     0.000000

 -----------------------------------------------------------------
                    Cartesian Multipole Moments
 -----------------------------------------------------------------
    Charge (ESU x 10^10)
                 0.0000
    Dipole Moment (Debye)
         X       0.4105      Y      -3.5653      Z       0.7209
       Tot       3.6606
    Quadrupole Moments (Debye-Ang)
        XX     -55.6450     XY      -8.0222     YY     -52.0343
        XZ      -2.3788     YZ       1.5425     ZZ     -48.7705
    Octopole Moments (Debye-Ang^2)
       XXX      44.2096    XXY      -3.8173    XYY      -5.7837
       YYY      -4.6215    XXZ       5.6748    XYZ      -5.3403
       YYZ      -0.6776    XZZ       2.1569    YZZ       3.2079
       ZZZ      -1.9993
    Hexadecapole Moments (Debye-Ang^3)
      XXXX   -1814.0906   XXXY     -73.5239   XXYY    -354.0024
      XYYY     -28.8432   YYYY    -209.8642   XXXZ     -16.8657
      XXYZ      15.4099   XYYZ      -0.7455   YYYZ      -0.0290
      XXZZ    -293.6181   XYZZ      -1.6024   YYZZ     -45.9785
      XZZZ       0.5056   YZZZ       0.3279   ZZZZ     -74.0967
 -----------------------------------------------------------------
 Calculating analytic gradient of the SCF energy
 Gradient of SCF Energy
            1           2           3           4           5           6
    1  -0.0000824  -0.0003424  -0.0000274   0.0000235   0.0000707   0.0002127
    2  -0.0002133  -0.0000919   0.0000168   0.0001376  -0.0000192  -0.0000925
    3   0.0001529  -0.0007766   0.0000336   0.0000176  -0.0000339   0.0001049
            7           8           9          10          11          12
    1  -0.0001258  -0.0000089   0.0003884   0.0001522  -0.0001352  -0.0002299
    2  -0.0000774   0.0001476   0.0000729   0.0001140  -0.0001332  -0.0000893
    3  -0.0002017   0.0002549   0.0002030   0.0001638   0.0000502  -0.0002642
           13          14          15          16
    1  -0.0000491  -0.0001481   0.0002297   0.0000723
    2  -0.0000155   0.0002535  -0.0000406   0.0000306
    3  -0.0000133   0.0000259   0.0000385   0.0002446
 Max gradient component =       7.766E-04
 RMS gradient           =       1.875E-04
 Gradient time:  CPU 98.22 s  wall 20.33 s
 Geometry Optimization Parameters
   NAtoms,    NIC,     NZ,  NCons,   NDum,   NFix, NCnnct, MaxDiis
       16     100       0       0       0       0       0       0

 Cartesian Hessian Update
 Hessian Updated using BFGS Update


** GEOMETRY OPTIMIZATION IN DELOCALIZED INTERNAL COORDINATES **
   Searching for a Minimum

   Optimization Cycle:   4

                       Coordinates (Angstroms)
     ATOM                X               Y               Z
      1  C         3.3306125543   -0.6397571945    0.0162245448
      2  C         2.0812269660    0.2037816026    0.0113300790
      3  H         3.9380047099   -0.3781212053   -0.8511641504
      4  H         3.1452809176   -1.7146605863    0.0020422929
      5  H         3.9189201465   -0.3977065811    0.9023130351
      6  N         0.9069086534   -0.4810037661   -0.0033271901
      7  C        -0.3574870679    0.2232924310   -0.0085172929
      8  H         0.9072985309   -1.4852375101   -0.0014079669
      9  C        -1.5004831037   -0.7678341452    0.0300926111
     10  H        -0.4307133165    0.8596447128   -0.8944712422
     11  H        -0.4011159429    0.8938412927    0.8563302912
     12  S        -3.1325258817    0.0248349879   -0.0203400625
     13  H        -1.4261438652   -1.4163951126    0.9076648731
     14  H        -1.4767498502   -1.4119969097   -0.8530433719
     15  H        -2.9741795481    0.7442120593    1.1080252844
     16  O         2.1103424450    1.4236886244    0.0246104889
   Point Group: c1    Number of degrees of freedom:    42


   Energy is   -685.847834512

 Hessian Updated using BFGS Update

 41 Hessian modes will be used to form the next step
  Hessian Eigenvalues:
     0.002645    0.005164    0.005862    0.009092    0.013489    0.014808
     0.020851    0.045360    0.050415    0.056598    0.058714    0.073753
     0.075749    0.090569    0.112872    0.126122    0.133434    0.155105
     0.160007    0.161517    0.171719    0.211430    0.220033    0.221810
     0.226637    0.244870    0.249662    0.251467    0.303908    0.321889
     0.323528    0.323950    0.324367    0.325024    0.325670    0.326322
     0.334954    0.387502    0.422952    0.519671    0.924435

 Minimum Search - Taking Simple RFO Step
 Searching for Lamda that Minimizes Along All modes
 Value Taken    Lamda =  -0.00003046
 Step Taken.  Stepsize is  0.067316

                             Maximum     Tolerance    Cnvgd?
         Gradient           0.000335      0.000300      NO
         Displacement       0.030920      0.001200      NO
         Energy change     -0.000037      0.000001      NO


 New Cartesian Coordinates Obtained by Inverse Iteration

 Displacement from previous Coordinates is:  0.111271
 ----------------------------------------------------------------
             Standard Nuclear Orientation (Angstroms)
    I     Atom           X                Y                Z
 ----------------------------------------------------------------
    1      C       3.3299670402    -0.6399986293     0.0188733258
    2      C       2.0810447213     0.2049068132     0.0201763820
    3      H       3.9434405418    -0.3658893641    -0.8407073850
    4      H       3.1424974251    -1.7140603210    -0.0123813258
    5      H       3.9143040118    -0.4114816227     0.9114049458
    6      N       0.9068217678    -0.4810599478    -0.0139034538
    7      C      -0.3580571361     0.2224934181    -0.0192077917
    8      H       0.9073775281    -1.4854241211    -0.0232935378
    9      C      -1.4997068512    -0.7683945836     0.0364821357
   10      H      -0.4368588229     0.8513117734    -0.9105614997
   11      H      -0.3950935050     0.9018629904     0.8395512126
   12      S      -3.1332683543     0.0199212740    -0.0117103391
   13      H      -1.4162696771    -1.4086787513     0.9195107548
   14      H      -1.4812965471    -1.4207652017    -0.8413189169
   15      H      -2.9742995656     0.7518651139     1.1090581999
   16      O       2.1085937705     1.4239738592     0.0443895168
 ----------------------------------------------------------------
 Molecular Point Group                 C1    NOp =  1
 Largest Abelian Subgroup              C1    NOp =  1
 Nuclear Repulsion Energy =   355.2163930092 hartrees
 There are       32 alpha and       32 beta electrons
 Applying Cartesian multipole field
    Component          Value
    ---------          -----
     (2,0,0)        1.00000E-11
     (0,2,0)        2.00000E-11
     (0,0,2)       -3.00000E-10
 Nucleus-field energy     =     0.0000000091 hartrees
 Requested basis set is 6-31G(d)
 There are 47 shells and 127 basis functions
 A cutoff of  1.0D-11 yielded    981 shell pairs
 There are      7385 function pairs
 Smallest overlap matrix eigenvalue = 3.15E-03
 Guess MOs from SCF MO coefficient file

 -----------------------------------------------------------------------
  General SCF calculation program by
  Eric Jon Sundstrom, Paul Horn, Yuezhi Mao, Dmitri Zuev, Alec White,
  David Stuck, Shaama M.S., Shane Yost, Joonho Lee, David Small,
  Daniel Levine, Susi Lehtola, Hugh Burton, Evgeny Epifanovsky
 -----------------------------------------------------------------------
 Exchange:  B97M-V      Correlation:  B97M-V
 Using SG-2 standard quadrature grid
 Nonlocal Correlation:  VV10 with C = 0.0100 and b = 6.00 and scale = 1.00000
 Grid used for NLC:  SG-1 standard quadrature
 using 8 threads for integral computing
 -------------------------------------------------------
 OpenMP Integral computing Module                
 Release: version 1.0, May 2013, Q-Chem Inc. Pittsburgh 
 -------------------------------------------------------
 -------------------------------------------------------
 OpenMP BLAS3 based DFT computing Module                
 Release: version 1.0, May 2013, Q-Chem Inc. Pittsburgh 
 -------------------------------------------------------
 -------------------------------------------------------
 OpenMP BLAS3 based DFT computing Module                
 Release: version 1.0, May 2013, Q-Chem Inc. Pittsburgh 
 -------------------------------------------------------
 -------------------------------------------------------
 OpenMP BLAS3 based DFT computing Module                
 Release: version 1.0, May 2013, Q-Chem Inc. Pittsburgh 
 -------------------------------------------------------
 Nonlocal correlation = 0.251087953330
 A restricted SCF calculation will be
 performed using DIIS
 SCF converges when DIIS error is below 1.0e-08
 ---------------------------------------
  Cycle       Energy         DIIS error
 ---------------------------------------
 Nonlocal correlation = 2.510874409959e-01
    1    -685.8475338563      2.86e-04  
 Nonlocal correlation = 2.510854048428e-01
    2    -685.8478559166      3.43e-05  
 Nonlocal correlation = 2.510881097447e-01
    3    -685.8478539641      4.90e-05  
 Nonlocal correlation = 2.510870455866e-01
    4    -685.8478574689      1.91e-05  
 Nonlocal correlation = 2.510871599376e-01
    5    -685.8478580984      2.12e-06  
 Nonlocal correlation = 2.510871355395e-01
    6    -685.8478581074      7.41e-07  
 Nonlocal correlation = 2.510871387854e-01
    7    -685.8478581085      2.19e-07  
 Nonlocal correlation = 2.510871371604e-01
    8    -685.8478581086      4.87e-08  
 Nonlocal correlation = 2.510871384936e-01
    9    -685.8478581086      1.46e-08  
   10    -685.8478581086      3.45e-09  Convergence criterion met
 ---------------------------------------
 SCF time:   CPU 333.03s  wall 42.00s 
 SCF   energy in the final basis set =     -685.8478581086
 Total energy in the final basis set =     -685.8478581086
 
 --------------------------------------------------------------
 
                    Orbital Energies (a.u.)
 --------------------------------------------------------------
 
 Alpha MOs
 -- Occupied --
-88.967 -19.117 -14.370 -10.279 -10.232 -10.226 -10.186  -7.976
 -5.848  -5.844  -5.836  -1.019  -0.914  -0.792  -0.727  -0.676
 -0.603  -0.562  -0.478  -0.467  -0.444  -0.418  -0.398  -0.377
 -0.375  -0.364  -0.359  -0.320  -0.315  -0.230  -0.225  -0.216
 -- Virtual --
 -0.002   0.011   0.041   0.062   0.090   0.106   0.110   0.126
  0.145   0.160   0.177   0.188   0.204   0.225   0.310   0.351
  0.363   0.382   0.396   0.427   0.511   0.524   0.534   0.543
  0.549   0.611   0.612   0.648   0.656   0.682   0.707   0.721
  0.735   0.774   0.808   0.830   0.845   0.846   0.853   0.863
  0.892   0.896   0.906   0.922   0.941   0.959   1.007   1.023
  1.073   1.097   1.115   1.145   1.174   1.306   1.326   1.352
  1.421   1.428   1.491   1.623   1.663   1.715   1.825   1.836
  1.838   1.878   1.903   1.913   1.945   2.008   2.032   2.074
  2.107   2.182   2.202   2.248   2.262   2.310   2.361   2.421
  2.477   2.657   2.691   2.736   2.755   2.963   3.073   3.238
  4.032   4.091   4.191   4.316   4.326   4.566   4.664
 --------------------------------------------------------------
 
          Ground-State Mulliken Net Atomic Charges

     Atom                 Charge (a.u.)
  ----------------------------------------
      1 C                    -0.579320
      2 C                     0.632745
      3 H                     0.198024
      4 H                     0.149737
      5 H                     0.196905
      6 N                    -0.647110
      7 C                    -0.081597
      8 H                     0.338959
      9 C                    -0.489134
     10 H                     0.186533
     11 H                     0.170064
     12 S                    -0.050787
     13 H                     0.189871
     14 H                     0.193090
     15 H                     0.104837
     16 O                    -0.512818
  ----------------------------------------
  Sum of atomic charges =     0.000000

 -----------------------------------------------------------------
                    Cartesian Multipole Moments
 -----------------------------------------------------------------
    Charge (ESU x 10^10)
                 0.0000
    Dipole Moment (Debye)
         X       0.4241      Y      -3.5486      Z       0.6796
       Tot       3.6379
    Quadrupole Moments (Debye-Ang)
        XX     -55.6377     XY      -8.0402     YY     -52.0036
        XZ      -2.4156     YZ       1.5227     ZZ     -48.7992
    Octopole Moments (Debye-Ang^2)
       XXX      44.4422    XXY      -3.6135    XYY      -5.8053
       YYY      -4.4081    XXZ       5.2540    XYZ      -5.5408
       YYZ      -1.0578    XZZ       2.2290    YZZ       3.2944
       ZZZ      -2.4600
    Hexadecapole Moments (Debye-Ang^3)
      XXXX   -1813.6540   XXXY     -74.1087   XXYY    -353.7646
      XYYY     -29.4256   YYYY    -209.9165   XXXZ     -16.6413
      XXYZ      15.0431   XYYZ      -0.9494   YYYZ      -0.3700
      XXZZ    -293.9051   XYZZ      -1.8829   YYZZ     -46.0039
      XZZZ       0.8275   YZZZ      -0.1921   ZZZZ     -74.2432
 -----------------------------------------------------------------
 Calculating analytic gradient of the SCF energy
 Gradient of SCF Energy
            1           2           3           4           5           6
    1  -0.0002512   0.0001698   0.0002468  -0.0000897   0.0001418  -0.0000449
    2  -0.0006556   0.0013788   0.0000475   0.0001641   0.0001417  -0.0002991
    3  -0.0002642   0.0006843  -0.0000143  -0.0000324  -0.0000280  -0.0003938
            7           8           9          10          11          12
    1  -0.0005028  -0.0000961   0.0002944   0.0003024  -0.0001425   0.0000374
    2  -0.0008259  -0.0000262   0.0004528   0.0002737   0.0001474  -0.0002941
    3  -0.0002997   0.0003053   0.0001978   0.0001108   0.0003070  -0.0003356
           13          14          15          16
    1   0.0001481  -0.0001168   0.0000411  -0.0001377
    2  -0.0000592   0.0001844   0.0001993  -0.0008294
    3   0.0000952  -0.0002211   0.0002190  -0.0003301
 Max gradient component =       1.379E-03
 RMS gradient           =       3.639E-04
 Gradient time:  CPU 98.24 s  wall 20.35 s
 Geometry Optimization Parameters
   NAtoms,    NIC,     NZ,  NCons,   NDum,   NFix, NCnnct, MaxDiis
       16     100       0       0       0       0       0       0

 Cartesian Hessian Update
 Hessian Updated using BFGS Update


** GEOMETRY OPTIMIZATION IN DELOCALIZED INTERNAL COORDINATES **
   Searching for a Minimum

   Optimization Cycle:   5

                       Coordinates (Angstroms)
     ATOM                X               Y               Z
      1  C         3.3299670402   -0.6399986293    0.0188733258
      2  C         2.0810447213    0.2049068132    0.0201763820
      3  H         3.9434405418   -0.3658893641   -0.8407073850
      4  H         3.1424974251   -1.7140603210   -0.0123813258
      5  H         3.9143040118   -0.4114816227    0.9114049458
      6  N         0.9068217678   -0.4810599478   -0.0139034538
      7  C        -0.3580571361    0.2224934181   -0.0192077917
      8  H         0.9073775281   -1.4854241211   -0.0232935378
      9  C        -1.4997068512   -0.7683945836    0.0364821357
     10  H        -0.4368588229    0.8513117734   -0.9105614997
     11  H        -0.3950935050    0.9018629904    0.8395512126
     12  S        -3.1332683543    0.0199212740   -0.0117103391
     13  H        -1.4162696771   -1.4086787513    0.9195107548
     14  H        -1.4812965471   -1.4207652017   -0.8413189169
     15  H        -2.9742995656    0.7518651139    1.1090581999
     16  O         2.1085937705    1.4239738592    0.0443895168
   Point Group: c1    Number of degrees of freedom:    42


   Energy is   -685.847858109

 Hessian Updated using BFGS Update

 42 Hessian modes will be used to form the next step
  Hessian Eigenvalues:
     0.000704    0.002673    0.005481    0.009095    0.013565    0.020767
     0.031982    0.045434    0.049957    0.056798    0.058346    0.073840
     0.076495    0.092503    0.114543    0.125335    0.136970    0.159255
     0.159856    0.160868    0.164781    0.192079    0.212868    0.220003
     0.221910    0.228624    0.246709    0.250606    0.261016    0.304476
     0.321792    0.323296    0.324244    0.325010    0.325189    0.326007
     0.330869    0.361903    0.387376    0.426035    0.540629    0.986639

 Minimum Search - Taking Simple RFO Step
 Searching for Lamda that Minimizes Along All modes
 Value Taken    Lamda =  -0.00016276
 Calculated Step too Large.  Step scaled by  0.711800
 Step Taken.  Stepsize is  0.300000

                             Maximum     Tolerance    Cnvgd?
         Gradient           0.000691      0.000300      NO
         Displacement       0.150125      0.001200      NO
         Energy change     -0.000024      0.000001      NO


 New Cartesian Coordinates Obtained by Inverse Iteration

 Displacement from previous Coordinates is:  0.541695
 ----------------------------------------------------------------
             Standard Nuclear Orientation (Angstroms)
    I     Atom           X                Y                Z
 ----------------------------------------------------------------
    1      C       3.3266548136    -0.6406043673     0.0329426873
    2      C       2.0782143271     0.2068698597     0.0459716134
    3      H       3.9749162714    -0.3102584991    -0.7811524723
    4      H       3.1354215926    -1.7084315813    -0.0783564695
    5      H       3.8797846941    -0.4749382551     0.9594107684
    6      N       0.9065814356    -0.4802532665    -0.0710623222
    7      C      -0.3609530445     0.2191995983    -0.0715823591
    8      H       0.9098207656    -1.4833117249    -0.1331450831
    9      C      -1.4954236052    -0.7697700210     0.0667138945
   10      H      -0.4715981247     0.8109304965    -0.9864991004
   11      H      -0.3664004211     0.9373987928     0.7569347740
   12      S      -3.1350604834     0.0016636547     0.0331669284
   13      H      -1.3715939626    -1.3684749555     0.9743672039
   14      H      -1.5026687007    -1.4626868191    -0.7816362037
   15      H      -2.9667066897     0.7827547546     1.1203577463
   16      O       2.0982074793     1.4204950327     0.1399306177
 ----------------------------------------------------------------
 Molecular Point Group                 C1    NOp =  1
 Largest Abelian Subgroup              C1    NOp =  1
 Nuclear Repulsion Energy =   355.2376968901 hartrees
 There are       32 alpha and       32 beta electrons
 Applying Cartesian multipole field
    Component          Value
    ---------          -----
     (2,0,0)        1.00000E-11
     (0,2,0)        2.00000E-11
     (0,0,2)       -3.00000E-10
 Nucleus-field energy     =     0.0000000088 hartrees
 Requested basis set is 6-31G(d)
 There are 47 shells and 127 basis functions
 A cutoff of  1.0D-11 yielded    982 shell pairs
 There are      7391 function pairs
 Smallest overlap matrix eigenvalue = 3.19E-03
 Guess MOs from SCF MO coefficient file

 -----------------------------------------------------------------------
  General SCF calculation program by
  Eric Jon Sundstrom, Paul Horn, Yuezhi Mao, Dmitri Zuev, Alec White,
  David Stuck, Shaama M.S., Shane Yost, Joonho Lee, David Small,
  Daniel Levine, Susi Lehtola, Hugh Burton, Evgeny Epifanovsky
 -----------------------------------------------------------------------
 Exchange:  B97M-V      Correlation:  B97M-V
 Using SG-2 standard quadrature grid
 Nonlocal Correlation:  VV10 with C = 0.0100 and b = 6.00 and scale = 1.00000
 Grid used for NLC:  SG-1 standard quadrature
 using 8 threads for integral computing
 -------------------------------------------------------
 OpenMP Integral computing Module                
 Release: version 1.0, May 2013, Q-Chem Inc. Pittsburgh 
 -------------------------------------------------------
 -------------------------------------------------------
 OpenMP BLAS3 based DFT computing Module                
 Release: version 1.0, May 2013, Q-Chem Inc. Pittsburgh 
 -------------------------------------------------------
 -------------------------------------------------------
 OpenMP BLAS3 based DFT computing Module                
 Release: version 1.0, May 2013, Q-Chem Inc. Pittsburgh 
 -------------------------------------------------------
 -------------------------------------------------------
 OpenMP BLAS3 based DFT computing Module                
 Release: version 1.0, May 2013, Q-Chem Inc. Pittsburgh 
 -------------------------------------------------------
 Nonlocal correlation = 0.251086398902
 A restricted SCF calculation will be
 performed using DIIS
 SCF converges when DIIS error is below 1.0e-08
 ---------------------------------------
  Cycle       Energy         DIIS error
 ---------------------------------------
 Nonlocal correlation = 2.510796846427e-01
    1    -685.8400863295      1.42e-03  
 Nonlocal correlation = 2.510821194218e-01
    2    -685.8479090934      1.50e-04  
 Nonlocal correlation = 2.510838191309e-01
    3    -685.8479171370      1.37e-04  
 Nonlocal correlation = 2.510801416089e-01
    4    -685.8479371020      9.22e-05  
 Nonlocal correlation = 2.510819834500e-01
    5    -685.8479517793      1.48e-05  
 Nonlocal correlation = 2.510814360410e-01
    6    -685.8479521178      5.52e-06  
 Nonlocal correlation = 2.510814837345e-01
    7    -685.8479521666      1.52e-06  
 Nonlocal correlation = 2.510814812529e-01
    8    -685.8479521712      2.94e-07  
 Nonlocal correlation = 2.510814842966e-01
    9    -685.8479521713      6.40e-08  
 Nonlocal correlation = 2.510814833796e-01
   10    -685.8479521714      1.89e-08  
   11    -685.8479521714      6.74e-09  Convergence criterion met
 ---------------------------------------
 SCF time:   CPU 364.80s  wall 46.00s 
 SCF   energy in the final basis set =     -685.8479521714
 Total energy in the final basis set =     -685.8479521714
 
 --------------------------------------------------------------
 
                    Orbital Energies (a.u.)
 --------------------------------------------------------------
 
 Alpha MOs
 -- Occupied --
-88.967 -19.118 -14.369 -10.279 -10.231 -10.225 -10.186  -7.976
 -5.848  -5.844  -5.836  -1.021  -0.914  -0.791  -0.727  -0.676
 -0.603  -0.562  -0.478  -0.467  -0.444  -0.417  -0.397  -0.378
 -0.375  -0.365  -0.358  -0.319  -0.315  -0.229  -0.225  -0.217
 -- Virtual --
 -0.001   0.011   0.040   0.062   0.090   0.106   0.111   0.126
  0.146   0.160   0.176   0.188   0.204   0.225   0.310   0.351
  0.363   0.381   0.395   0.425   0.511   0.523   0.536   0.543
  0.549   0.609   0.612   0.648   0.658   0.684   0.709   0.722
  0.735   0.773   0.808   0.828   0.839   0.845   0.857   0.863
  0.889   0.895   0.907   0.922   0.941   0.959   1.004   1.019
  1.082   1.099   1.116   1.145   1.175   1.303   1.322   1.356
  1.423   1.426   1.493   1.622   1.661   1.711   1.820   1.833
  1.838   1.876   1.907   1.911   1.946   2.007   2.029   2.070
  2.115   2.182   2.202   2.245   2.264   2.313   2.363   2.423
  2.474   2.656   2.688   2.738   2.751   2.964   3.074   3.236
  4.032   4.088   4.193   4.315   4.327   4.564   4.665
 --------------------------------------------------------------
 
          Ground-State Mulliken Net Atomic Charges

     Atom                 Charge (a.u.)
  ----------------------------------------
      1 C                    -0.579970
      2 C                     0.632642
      3 H                     0.198097
      4 H                     0.150329
      5 H                     0.196545
      6 N                    -0.647613
      7 C                    -0.083118
      8 H                     0.338572
      9 C                    -0.486747
     10 H                     0.182486
     11 H                     0.174492
     12 S                    -0.052304
     13 H                     0.191001
     14 H                     0.190647
     15 H                     0.105422
     16 O                    -0.510481
  ----------------------------------------
  Sum of atomic charges =     0.000000

 -----------------------------------------------------------------
                    Cartesian Multipole Moments
 -----------------------------------------------------------------
    Charge (ESU x 10^10)
                 0.0000
    Dipole Moment (Debye)
         X       0.4900      Y      -3.4770      Z       0.4680
       Tot       3.5424
    Quadrupole Moments (Debye-Ang)
        XX     -55.6301     XY      -8.0877     YY     -51.8500
        XZ      -2.5950     YZ       1.4148     ZZ     -48.9192
    Octopole Moments (Debye-Ang^2)
       XXX      45.5779    XXY      -2.8375    XYY      -5.8273
       YYY      -3.4422    XXZ       3.2529    XYZ      -6.4716
       YYZ      -2.7998    XZZ       2.4672    YZZ       3.5871
       ZZZ      -4.4925
    Hexadecapole Moments (Debye-Ang^3)
      XXXX   -1810.6292   XXXY     -75.3953   XXYY    -352.0610
      XYYY     -31.0406   YYYY    -209.4727   XXXZ     -14.2921
      XXYZ      13.2003   XYYZ      -1.6172   YYYZ      -1.9165
      XXZZ    -295.1443   XYZZ      -3.2008   YYZZ     -46.1948
      XZZZ       3.3419   YZZZ      -2.6387   ZZZZ     -75.8134
 -----------------------------------------------------------------
 Calculating analytic gradient of the SCF energy
 Gradient of SCF Energy
            1           2           3           4           5           6
    1  -0.0006907   0.0018628   0.0008626  -0.0004327   0.0005586  -0.0008257
    2  -0.0017833   0.0058072   0.0002581   0.0002231   0.0003934  -0.0012037
    3  -0.0008252   0.0023066  -0.0001042  -0.0001157   0.0001428  -0.0015431
            7           8           9          10          11          12
    1  -0.0014714  -0.0003114  -0.0002622   0.0007351  -0.0002041   0.0010226
    2  -0.0028651  -0.0006027   0.0016886   0.0008162   0.0012122  -0.0009563
    3  -0.0001756   0.0007142  -0.0000690  -0.0001223   0.0009453  -0.0002757
           13          14          15          16
    1   0.0007458  -0.0000444  -0.0005367  -0.0010083
    2  -0.0001865  -0.0002083   0.0009238  -0.0035167
    3   0.0004241  -0.0009218   0.0005387  -0.0009189
 Max gradient component =       5.807E-03
 RMS gradient           =       1.371E-03
 Gradient time:  CPU 98.24 s  wall 20.34 s
 Geometry Optimization Parameters
   NAtoms,    NIC,     NZ,  NCons,   NDum,   NFix, NCnnct, MaxDiis
       16     100       0       0       0       0       0       0

 Cartesian Hessian Update
 Hessian Updated using BFGS Update


** GEOMETRY OPTIMIZATION IN DELOCALIZED INTERNAL COORDINATES **
   Searching for a Minimum

   Optimization Cycle:   6

                       Coordinates (Angstroms)
     ATOM                X               Y               Z
      1  C         3.3266548136   -0.6406043673    0.0329426873
      2  C         2.0782143271    0.2068698597    0.0459716134
      3  H         3.9749162714   -0.3102584991   -0.7811524723
      4  H         3.1354215926   -1.7084315813   -0.0783564695
      5  H         3.8797846941   -0.4749382551    0.9594107684
      6  N         0.9065814356   -0.4802532665   -0.0710623222
      7  C        -0.3609530445    0.2191995983   -0.0715823591
      8  H         0.9098207656   -1.4833117249   -0.1331450831
      9  C        -1.4954236052   -0.7697700210    0.0667138945
     10  H        -0.4715981247    0.8109304965   -0.9864991004
     11  H        -0.3664004211    0.9373987928    0.7569347740
     12  S        -3.1350604834    0.0016636547    0.0331669284
     13  H        -1.3715939626   -1.3684749555    0.9743672039
     14  H        -1.5026687007   -1.4626868191   -0.7816362037
     15  H        -2.9667066897    0.7827547546    1.1203577463
     16  O         2.0982074793    1.4204950327    0.1399306177
   Point Group: c1    Number of degrees of freedom:    42


   Energy is   -685.847952171

 Hessian Updated using BFGS Update

 42 Hessian modes will be used to form the next step
  Hessian Eigenvalues:
     0.000288    0.002917    0.005474    0.009133    0.013808    0.021651
     0.032758    0.045442    0.049573    0.056929    0.058677    0.073868
     0.076371    0.092840    0.114741    0.125198    0.137939    0.159768
     0.160718    0.162007    0.164519    0.199271    0.214330    0.220028
     0.225134    0.229335    0.246995    0.251858    0.277234    0.304575
     0.321762    0.323281    0.324231    0.325010    0.325263    0.326103
     0.331540    0.387199    0.404726    0.443323    0.607683    1.200848

 Minimum Search - Taking Simple RFO Step
 Searching for Lamda that Minimizes Along All modes
 Value Taken    Lamda =  -0.00024209
 Calculated Step too Large.  Step scaled by  0.501937
 Step Taken.  Stepsize is  0.300000

                             Maximum     Tolerance    Cnvgd?
         Gradient           0.002445      0.000300      NO
[...]
      6  N         0.9311137254   -0.3550807322   -0.6610650995
      7  C        -0.4313671576    0.1238452287   -0.5848223554
      8  H         1.1576995776   -1.0721358694   -1.3294002470
      9  C        -1.2544392140   -0.6552749758    0.4293912624
     10  H        -0.8839045834    0.0631763756   -1.5752016501
     11  H        -0.3944252100    1.1743608679   -0.2950001599
     12  S        -2.9754469415   -0.0768097164    0.5336145592
     13  H        -0.7801848765   -0.6022846961    1.4091999467
     14  H        -1.3178522228   -1.7078444522    0.1468849536
     15  H        -2.6889360880    1.1313682494    1.0561635297
     16  O         1.5630111105    0.7354517101    1.2145182261
   Point Group: c1    Number of degrees of freedom:    42


   Energy is   -685.852064123

 Hessian Updated using BFGS Update

 42 Hessian modes will be used to form the next step
  Hessian Eigenvalues:
     0.002914    0.004288    0.006598    0.008808    0.011164    0.021228
     0.036250    0.050190    0.051011    0.058216    0.058976    0.073877
     0.076114    0.094500    0.113929    0.129664    0.149449    0.152485
     0.160007    0.162143    0.168009    0.186991    0.203573    0.215443
     0.224349    0.236462    0.242564    0.254040    0.294870    0.307106
     0.323185    0.325032    0.325537    0.325658    0.326256    0.330905
     0.336891    0.359619    0.394269    0.429478    0.536948    0.986800

 Minimum Search - Taking Simple RFO Step
 Searching for Lamda that Minimizes Along All modes
 Value Taken    Lamda =   0.00000000
 Step Taken.  Stepsize is  0.009314

                             Maximum     Tolerance    Cnvgd?
         Gradient           0.000240      0.000300     YES
         Displacement       0.003814      0.001200      NO
         Energy change     -0.000001      0.000001      NO


 New Cartesian Coordinates Obtained by Inverse Iteration

 Displacement from previous Coordinates is:  0.015548
 ----------------------------------------------------------------
             Standard Nuclear Orientation (Angstroms)
    I     Atom           X                Y                Z
 ----------------------------------------------------------------
    1      C       3.2007643031    -0.6523757040     0.1545626964
    2      C       1.8377952847    -0.0270017071     0.3009073133
    3      H       3.9530151116     0.1366896658     0.1695378730
    4      H       3.3259753031    -1.2406304709    -0.7565475652
    5      H       3.3944238104    -1.2925453186     1.0169146125
    6      N       0.9312793696    -0.3553800316    -0.6620438779
    7      C      -0.4313267972     0.1235841032    -0.5856512212
    8      H       1.1576949776    -1.0732876852    -1.3294465074
    9      C      -1.2544498689    -0.6557078033     0.4283488341
   10      H      -0.8837052664     0.0636776571    -1.5761237065
   11      H      -0.3943681201     1.1739182403    -0.2954310122
   12      S      -2.9745858247    -0.0751855149     0.5347791956
   13      H      -0.7789284163    -0.6038956564     1.4075895157
   14      H      -1.3193909262    -1.7079283222     0.1449972887
   15      H      -2.6860519700     1.1314961169     1.0596270413
   16      O       1.5610553771     0.7351551304     1.2143417433
 ----------------------------------------------------------------
 Molecular Point Group                 C1    NOp =  1
 Largest Abelian Subgroup              C1    NOp =  1
 Nuclear Repulsion Energy =   362.0555982566 hartrees
 There are       32 alpha and       32 beta electrons
 Applying Cartesian multipole field
    Component          Value
    ---------          -----
     (2,0,0)        1.00000E-11
     (0,2,0)        2.00000E-11
     (0,0,2)       -3.00000E-10
 Nucleus-field energy     =    -0.0000000222 hartrees
 Requested basis set is 6-31G(d)
 There are 47 shells and 127 basis functions
 A cutoff of  1.0D-11 yielded   1009 shell pairs
 There are      7599 function pairs
 Smallest overlap matrix eigenvalue = 3.27E-03
 Guess MOs from SCF MO coefficient file

 -----------------------------------------------------------------------
  General SCF calculation program by
  Eric Jon Sundstrom, Paul Horn, Yuezhi Mao, Dmitri Zuev, Alec White,
  David Stuck, Shaama M.S., Shane Yost, Joonho Lee, David Small,
  Daniel Levine, Susi Lehtola, Hugh Burton, Evgeny Epifanovsky
 -----------------------------------------------------------------------
 Exchange:  B97M-V      Correlation:  B97M-V
 Using SG-2 standard quadrature grid
 Nonlocal Correlation:  VV10 with C = 0.0100 and b = 6.00 and scale = 1.00000
 Grid used for NLC:  SG-1 standard quadrature
 using 8 threads for integral computing
 -------------------------------------------------------
 OpenMP Integral computing Module                
 Release: version 1.0, May 2013, Q-Chem Inc. Pittsburgh 
 -------------------------------------------------------
 -------------------------------------------------------
 OpenMP BLAS3 based DFT computing Module                
 Release: version 1.0, May 2013, Q-Chem Inc. Pittsburgh 
 -------------------------------------------------------
 -------------------------------------------------------
 OpenMP BLAS3 based DFT computing Module                
 Release: version 1.0, May 2013, Q-Chem Inc. Pittsburgh 
 -------------------------------------------------------
 -------------------------------------------------------
 OpenMP BLAS3 based DFT computing Module                
 Release: version 1.0, May 2013, Q-Chem Inc. Pittsburgh 
 -------------------------------------------------------
 Nonlocal correlation = 0.250589111805
 A restricted SCF calculation will be
 performed using DIIS
 SCF converges when DIIS error is below 1.0e-08
 ---------------------------------------
  Cycle       Energy         DIIS error
 ---------------------------------------
 Nonlocal correlation = 2.505891411841e-01
    1    -685.8520602372      3.30e-05  
 Nonlocal correlation = 2.505892103641e-01
    2    -685.8520645572      2.64e-06  
 Nonlocal correlation = 2.505891023391e-01
    3    -685.8520645661      1.62e-06  
 Nonlocal correlation = 2.505891859987e-01
    4    -685.8520645699      9.66e-07  
 Nonlocal correlation = 2.505891627250e-01
    5    -685.8520645713      3.43e-07  
 Nonlocal correlation = 2.505891609745e-01
    6    -685.8520645715      1.10e-07  
 Nonlocal correlation = 2.505891631281e-01
    7    -685.8520645715      3.49e-08  
    8    -685.8520645715      5.25e-09  Convergence criterion met
 ---------------------------------------
 SCF time:   CPU 268.95s  wall 33.00s 
 SCF   energy in the final basis set =     -685.8520645715
 Total energy in the final basis set =     -685.8520645715
 
 --------------------------------------------------------------
 
                    Orbital Energies (a.u.)
 --------------------------------------------------------------
 
 Alpha MOs
 -- Occupied --
-88.957 -19.122 -14.373 -10.283 -10.224 -10.216 -10.189  -7.966
 -5.838  -5.834  -5.827  -1.023  -0.915  -0.781  -0.728  -0.672
 -0.597  -0.563  -0.488  -0.449  -0.437  -0.423  -0.398  -0.382
 -0.371  -0.364  -0.339  -0.330  -0.306  -0.239  -0.220  -0.213
 -- Virtual --
 -0.002   0.016   0.047   0.064   0.099   0.113   0.124   0.127
  0.145   0.155   0.163   0.194   0.209   0.231   0.307   0.353
  0.370   0.394   0.398   0.434   0.506   0.513   0.532   0.541
  0.577   0.592   0.602   0.639   0.649   0.688   0.701   0.738
  0.753   0.774   0.808   0.820   0.835   0.860   0.865   0.876
  0.887   0.895   0.913   0.930   0.936   0.943   0.964   1.000
  1.094   1.125   1.143   1.173   1.248   1.292   1.320   1.343
  1.403   1.429   1.489   1.639   1.687   1.753   1.797   1.821
  1.833   1.841   1.918   1.921   1.943   1.995   2.005   2.084
  2.139   2.188   2.201   2.212   2.281   2.369   2.417   2.432
  2.468   2.587   2.668   2.727   2.768   2.952   3.072   3.212
  4.032   4.113   4.193   4.318   4.349   4.573   4.660
 --------------------------------------------------------------
 
          Ground-State Mulliken Net Atomic Charges

     Atom                 Charge (a.u.)
  ----------------------------------------
      1 C                    -0.577751
      2 C                     0.624960
      3 H                     0.200537
      4 H                     0.151362
      5 H                     0.196632
      6 N                    -0.622238
      7 C                    -0.127796
      8 H                     0.339337
      9 C                    -0.449336
     10 H                     0.167800
     11 H                     0.186440
     12 S                    -0.080199
     13 H                     0.216694
     14 H                     0.180457
     15 H                     0.109610
     16 O                    -0.516512
  ----------------------------------------
  Sum of atomic charges =     0.000000

 -----------------------------------------------------------------
                    Cartesian Multipole Moments
 -----------------------------------------------------------------
    Charge (ESU x 10^10)
                 0.0000
    Dipole Moment (Debye)
         X       1.7878      Y      -1.9153      Z      -2.4197
       Tot       3.5665
    Quadrupole Moments (Debye-Ang)
        XX     -53.7543     XY      -5.9541     YY     -47.9917
        XZ      -3.1453     YZ       0.7299     ZZ     -51.9207
    Octopole Moments (Debye-Ang^2)
       XXX      56.1095    XXY       9.6296    XYY       0.6322
       YYY      19.9381    XXZ     -15.7315    XYZ      -7.4524
       YYZ     -13.7906    XZZ       4.2363    YZZ       2.6293
       ZZZ     -41.7958
    Hexadecapole Moments (Debye-Ang^3)
      XXXX   -1570.1439   XXXY     -13.7753   XXYY    -267.4652
      XYYY      17.4707   YYYY    -138.0071   XXXZ      41.0049
      XXYZ       6.9978   XYYZ       5.7919   YYYZ      -7.6098
      XXZZ    -305.0007   XYZZ      -9.1296   YYZZ     -53.8476
      XZZZ      32.5953   YZZZ      -8.2298   ZZZZ    -195.4123
 -----------------------------------------------------------------
 Calculating analytic gradient of the SCF energy
 Gradient of SCF Energy
            1           2           3           4           5           6
    1   0.0000030   0.0000137  -0.0000056  -0.0000106   0.0000016   0.0000117
    2  -0.0000001  -0.0000219  -0.0000170   0.0000067  -0.0000304  -0.0000490
    3  -0.0000075  -0.0000650  -0.0000037  -0.0000257  -0.0000300   0.0000101
            7           8           9          10          11          12
    1  -0.0000046  -0.0000091   0.0000128  -0.0000068  -0.0000059  -0.0000093
    2   0.0000224   0.0000271  -0.0000110   0.0000252  -0.0000033   0.0000205
    3   0.0000174  -0.0000086   0.0000018   0.0000147   0.0000147   0.0000201
           13          14          15          16
    1   0.0000084  -0.0000035   0.0000079  -0.0000036
    2  -0.0000049   0.0000118  -0.0000053   0.0000293
    3  -0.0000036  -0.0000017   0.0000294   0.0000378
 Max gradient component =       6.496E-05
 RMS gradient           =       1.945E-05
 Gradient time:  CPU 99.12 s  wall 20.82 s
 Geometry Optimization Parameters
   NAtoms,    NIC,     NZ,  NCons,   NDum,   NFix, NCnnct, MaxDiis
       16     100       0       0       0       0       0       0

 Cartesian Hessian Update
 Hessian Updated using BFGS Update


** GEOMETRY OPTIMIZATION IN DELOCALIZED INTERNAL COORDINATES **
   Searching for a Minimum

   Optimization Cycle:  30

                       Coordinates (Angstroms)
     ATOM                X               Y               Z
      1  C         3.2007643031   -0.6523757040    0.1545626964
      2  C         1.8377952847   -0.0270017071    0.3009073133
      3  H         3.9530151116    0.1366896658    0.1695378730
      4  H         3.3259753031   -1.2406304709   -0.7565475652
      5  H         3.3944238104   -1.2925453186    1.0169146125
      6  N         0.9312793696   -0.3553800316   -0.6620438779
      7  C        -0.4313267972    0.1235841032   -0.5856512212
      8  H         1.1576949776   -1.0732876852   -1.3294465074
      9  C        -1.2544498689   -0.6557078033    0.4283488341
     10  H        -0.8837052664    0.0636776571   -1.5761237065
     11  H        -0.3943681201    1.1739182403   -0.2954310122
     12  S        -2.9745858247   -0.0751855149    0.5347791956
     13  H        -0.7789284163   -0.6038956564    1.4075895157
     14  H        -1.3193909262   -1.7079283222    0.1449972887
     15  H        -2.6860519700    1.1314961169    1.0596270413
     16  O         1.5610553771    0.7351551304    1.2143417433
   Point Group: c1    Number of degrees of freedom:    42


   Energy is   -685.852064572

 Hessian Updated using BFGS Update

 42 Hessian modes will be used to form the next step
  Hessian Eigenvalues:
     0.002797    0.004083    0.006567    0.007182    0.011191    0.021205
     0.036144    0.050286    0.051375    0.058314    0.059303    0.073874
     0.075987    0.094360    0.114841    0.132022    0.150012    0.153104
     0.160017    0.161924    0.168780    0.186931    0.203976    0.216581
     0.224458    0.239571    0.242388    0.254023    0.296689    0.311795
     0.323266    0.325044    0.325545    0.325750    0.326566    0.330891
     0.337758    0.361056    0.394741    0.431415    0.549813    1.052083

 Minimum Search - Taking Simple RFO Step
 Searching for Lamda that Minimizes Along All modes
 Value Taken    Lamda =   0.00000000
 Step Taken.  Stepsize is  0.004153

                             Maximum     Tolerance    Cnvgd?
         Gradient           0.000040      0.000300     YES
         Displacement       0.001929      0.001200      NO
         Energy change     -0.000000      0.000001     YES

 Final energy is   -685.852064571529     


 ******************************
 **  OPTIMIZATION CONVERGED  **
 ******************************

                       Coordinates (Angstroms)
     ATOM                X               Y               Z
      1  C         3.2007643031   -0.6523757040    0.1545626964
      2  C         1.8377952847   -0.0270017071    0.3009073133
      3  H         3.9530151116    0.1366896658    0.1695378730
      4  H         3.3259753031   -1.2406304709   -0.7565475652
      5  H         3.3944238104   -1.2925453186    1.0169146125
      6  N         0.9312793696   -0.3553800316   -0.6620438779
      7  C        -0.4313267972    0.1235841032   -0.5856512212
      8  H         1.1576949776   -1.0732876852   -1.3294465074
      9  C        -1.2544498689   -0.6557078033    0.4283488341
     10  H        -0.8837052664    0.0636776571   -1.5761237065
     11  H        -0.3943681201    1.1739182403   -0.2954310122
     12  S        -2.9745858247   -0.0751855149    0.5347791956
     13  H        -0.7789284163   -0.6038956564    1.4075895157
     14  H        -1.3193909262   -1.7079283222    0.1449972887
     15  H        -2.6860519700    1.1314961169    1.0596270413
     16  O         1.5610553771    0.7351551304    1.2143417433

Z-matrix Print:
$molecule
0 1
S 
H  1 1.347144
C  1 1.818571 2 96.093271
H  3 1.089825 1 110.178682 2 55.939523 0
H  3 1.091638 1 105.462861 2 171.968190 0
C  3 1.520863 1 112.791419 2 -67.131096 0
H  6 1.090319 3 109.541354 1 61.046064 0
H  6 1.090537 3 110.664301 1 -57.900625 0
N  6 1.446353 3 112.049954 1 -179.710816 0
H  9 1.006023 6 118.906523 3 91.200219 0
C  9 1.362673 6 120.637396 3 -77.033515 0
O  11 1.221405 9 121.878888 6 -4.134528 0
C  11 1.506716 9 115.665900 6 176.504412 0
H  13 1.090289 11 108.808775 9 126.162608 0
H  13 1.091317 11 109.101877 9 -117.506041 0
H  13 1.091716 11 114.107969 9 4.465559 0
$end

 
 --------------------------------------------------------------
 
                    Orbital Energies (a.u.)
 --------------------------------------------------------------
 
 Alpha MOs
 -- Occupied --
-88.957 -19.122 -14.373 -10.283 -10.224 -10.216 -10.189  -7.966
 -5.838  -5.834  -5.827  -1.023  -0.915  -0.781  -0.728  -0.672
 -0.597  -0.563  -0.488  -0.449  -0.437  -0.423  -0.398  -0.382
 -0.371  -0.364  -0.339  -0.330  -0.306  -0.239  -0.220  -0.213
 -- Virtual --
 -0.002   0.016   0.047   0.064   0.099   0.113   0.124   0.127
  0.145   0.155   0.163   0.194   0.209   0.231   0.307   0.353
  0.370   0.394   0.398   0.434   0.506   0.513   0.532   0.541
  0.577   0.592   0.602   0.639   0.649   0.688   0.701   0.738
  0.753   0.774   0.808   0.820   0.835   0.860   0.865   0.876
  0.887   0.895   0.913   0.930   0.936   0.943   0.964   1.000
  1.094   1.125   1.143   1.173   1.248   1.292   1.320   1.343
  1.403   1.429   1.489   1.639   1.687   1.753   1.797   1.821
  1.833   1.841   1.918   1.921   1.943   1.995   2.005   2.084
  2.139   2.188   2.201   2.212   2.281   2.369   2.417   2.432
  2.468   2.587   2.668   2.727   2.768   2.952   3.072   3.212
  4.032   4.113   4.193   4.318   4.349   4.573   4.660
 --------------------------------------------------------------
 
          Ground-State Mulliken Net Atomic Charges

     Atom                 Charge (a.u.)
  ----------------------------------------
      1 C                    -0.577751
      2 C                     0.624960
      3 H                     0.200537
      4 H                     0.151362
      5 H                     0.196632
      6 N                    -0.622238
      7 C                    -0.127796
      8 H                     0.339337
      9 C                    -0.449336
     10 H                     0.167800
     11 H                     0.186440
     12 S                    -0.080199
     13 H                     0.216694
     14 H                     0.180457
     15 H                     0.109610
     16 O                    -0.516512
  ----------------------------------------
  Sum of atomic charges =     0.000000

 -----------------------------------------------------------------
                    Cartesian Multipole Moments
 -----------------------------------------------------------------
    Charge (ESU x 10^10)
                 0.0000
    Dipole Moment (Debye)
         X       1.7878      Y      -1.9153      Z      -2.4197
       Tot       3.5665
    Quadrupole Moments (Debye-Ang)
        XX     -53.7543     XY      -5.9541     YY     -47.9917
        XZ      -3.1453     YZ       0.7299     ZZ     -51.9207
    Octopole Moments (Debye-Ang^2)
       XXX      56.1095    XXY       9.6296    XYY       0.6322
       YYY      19.9381    XXZ     -15.7315    XYZ      -7.4524
       YYZ     -13.7906    XZZ       4.2363    YZZ       2.6293
       ZZZ     -41.7958
    Hexadecapole Moments (Debye-Ang^3)
      XXXX   -1570.1439   XXXY     -13.7753   XXYY    -267.4652
      XYYY      17.4707   YYYY    -138.0071   XXXZ      41.0049
      XXYZ       6.9978   XYYZ       5.7919   YYYZ      -7.6098
      XXZZ    -305.0007   XYZZ      -9.1296   YYZZ     -53.8476
      XZZZ      32.5953   YZZZ      -8.2298   ZZZZ    -195.4123
 -----------------------------------------------------------------
Archival summary:
1\1\cub-0-30.local\OPT\ProcedureUnspecified\6-31G*\11149\c295_kri\TueNov2722:40:492018TueNov2722:40:492018\0\\#,OPT,ProcedureUnspecified,6-31G*,\\0,1\S\H,1,1.34714\C,1,1.81857,2,96.0933\H,3,1.08982,1,110.179,2,55.9395,0\H,3,1.09164,1,105.463,2,171.968,0\C,3,1.52086,1,112.791,2,-67.1311,0\H,6,1.09032,3,109.541,1,61.0461,0\H,6,1.09054,3,110.664,1,-57.9006,0\N,6,1.44635,3,112.05,1,-179.711,0\H,9,1.00602,6,118.907,3,91.2002,0\C,9,1.36267,6,120.637,3,-77.0335,0\O,11,1.22141,9,121.879,6,-4.13453,0\C,11,1.50672,9,115.666,6,176.504,0\H,13,1.09029,11,108.809,9,126.163,0\H,13,1.09132,11,109.102,9,-117.506,0\H,13,1.09172,11,114.108,9,4.46556,0\\\@

 Total job time:  1984.27s(wall), 13899.93s(cpu) 
 Tue Nov 27 22:40:49 2018

        *************************************************************
        *                                                           *
        *  Thank you very much for using Q-Chem.  Have a nice day.  *
        *                                                           *
        *************************************************************


