88
image # 1 Energy = -2679.08662
N 9.08179   -0.43650  -0.66609  
C 7.76383   0.07713   -0.99357  
H 9.86113   0.07255   -1.05988  
H 9.15260   -1.44298  -0.76173  
C 6.71470   -0.92513  -0.53540  
H 7.58521   0.24297   -2.07660  
H 7.59479   1.04293   -0.49979  
N 5.50867   -0.42406  -0.17259  
C 4.38553   -1.28197  0.18096   
H 5.31771   0.57128   -0.17040  
C 3.12644   -0.41538  0.16537   
N 1.96498   -1.04220  0.44870   
C 0.67636   -0.35415  0.45616   
H 1.91249   -2.04730  0.61180   
C -0.40253  -1.43555  0.33111   
N -1.62202  -0.99547  -0.04664  
C -2.77281  -1.88472  -0.27422  
H -1.77903  -0.01654  -0.25526  
C -3.99057  -0.97650  -0.12213  
N -5.06153  -1.44703  0.53586   
C -6.28650  -0.67379  0.72405   
H -5.08608  -2.38686  0.92282   
C -7.22132  -1.48269  1.60482   
H -6.76979  -0.47493  -0.24411  
H -6.06545  0.30207   1.17601   
O -8.37788  -0.86495  1.98782   
H -8.45525  0.07066   1.70587   
O 6.95728   -2.16330  -0.54482  
O 3.18922   0.82151   -0.09093  
O -0.13618  -2.64101  0.57401   
O -3.93852  0.20053   -0.59920  
O -6.97459  -2.63521  1.95646   
C 4.58156   -2.02040  1.56639   
H 4.28537   -2.05276  -0.59380  
C 4.48473   -3.50554  1.45392   
H 3.84090   -1.66592  2.29059   
H 5.56450   -1.72265  1.94953   
C 3.60566   -4.44256  1.96648   
N 3.95961   -5.72290  1.54307   
H 2.75605   -4.28442  2.61137   
C 5.03980   -5.55851  0.77825   
N 5.39601   -4.23382  0.69300   
H 5.57927   -6.34743  0.28162   
H 6.14906   -3.79654  0.16465   
C 0.51905   0.49377   1.74192   
H 0.62765   0.32743   -0.39977  
O -0.70827  1.28006   1.67713   
H 1.35652   1.19172   1.80433   
H 0.53030   -0.16421  2.61823   
H -1.31992  1.03512   2.39497   
C -2.64707  -2.54816  -1.67813  
H -2.76161  -2.65887  0.49871   
C -3.60381  -3.71675  -2.03971  
H -1.62175  -2.93502  -1.71067  
H -2.72387  -1.75557  -2.43361  
C -5.01961  -3.26903  -2.45726  
H -5.59612  -2.87988  -1.61081  
H -5.57998  -4.11751  -2.86682  
H -4.98050  -2.48980  -3.22788  
C -3.64756  -4.80588  -0.94838  
H -3.14639  -4.17412  -2.93053  
H -4.19279  -4.47186  -0.05557  
H -2.63914  -5.10145  -0.63633  
H -4.16341  -5.69903  -1.31728  
C -3.13186  3.82100   -1.06873  
C -3.01028  3.40299   0.38826   
C -4.35447  3.24901   1.08841   
H -2.43141  4.15088   0.93616   
H -2.45469  2.45668   0.42791   
O -5.11308  2.18033   0.69143   
H -4.69803  1.58491   0.00383   
O -4.19300  3.96785   -1.66578  
O -4.73766  3.99315   1.98709   
C 4.37892   3.92358   0.64371   
C 3.16292   4.52918   -0.03301  
H 4.12901   3.00599   1.18408   
H 4.80643   4.65600   1.32935   
H 5.13208   3.67480   -0.11555  
N 2.33627   3.62463   -0.65597  
C 1.18981   4.06235   -1.44834  
H 2.54800   2.63317   -0.58502  
C -0.13047  3.53293   -0.87294  
H 1.30295   3.73412   -2.48990  
H 1.19835   5.15517   -1.43344  
S -1.54362  4.16793   -1.99686  
H -0.27616  3.87187   0.15406   
H -0.16438  2.44152   -0.89025  
O 2.95627   5.76323   -0.05226  
88
image # 2 Energy = -2679.00069
N 9.09492   -0.46367  -0.56517  
C 7.77926   0.03727   -0.91582  
H 9.87651   0.05323   -0.94280  
H 9.17578   -1.46890  -0.65679  
C 6.72979   -0.97130  -0.47025  
H 7.61627   0.19741   -2.00292  
H 7.59787   1.00304   -0.42807  
N 5.51891   -0.47620  -0.11731  
C 4.39117   -1.33478  0.22109   
H 5.32682   0.51861   -0.11663  
C 3.13470   -0.46503  0.18098   
N 1.96238   -1.09123  0.42814   
C 0.67901   -0.39473  0.41514   
H 1.90228   -2.09707  0.58168   
C -0.41058  -1.46619  0.29903   
N -1.63456  -1.01886  -0.05126  
C -2.77962  -1.91152  -0.28601  
H -1.79857  -0.03537  -0.23182  
C -4.00271  -1.03629  -0.06259  
N -5.04621  -1.54581  0.61344   
C -6.28303  -0.81224  0.85412   
H -5.03858  -2.49584  0.97389   
C -7.18429  -1.67062  1.72305   
H -6.79356  -0.58027  -0.09201  
H -6.06617  0.13874   1.35222   
O -8.34546  -1.08854  2.14897   
H -8.45175  -0.14817  1.89241   
O 6.97829   -2.20822  -0.47804  
O 3.20540   0.77134   -0.06790  
O -0.14199  -2.67525  0.51752   
O -3.98672  0.14217   -0.53732  
O -6.90430  -2.82689  2.03170   
C 4.56741   -2.06598  1.61187   
H 4.29988   -2.10558  -0.55421  
C 4.48704   -3.55139  1.50099   
H 3.80845   -1.71791  2.31990   
H 5.53914   -1.75678  2.01406   
C 3.61274   -4.49510  2.00925   
N 3.98180   -5.77302  1.59076   
H 2.75676   -4.34274  2.64734   
C 5.06590   -5.59997  0.83365   
N 5.41162   -4.27233  0.74964   
H 5.61620   -6.38356  0.34081   
H 6.16630   -3.82954  0.22807   
C 0.52572   0.46099   1.70976   
H 0.64003   0.28350   -0.44368  
O -0.73310  1.26109   1.60301   
H 1.37254   1.14367   1.76981   
H 0.51505   -0.20468  2.57652   
H -1.28088  1.76811   2.80348   
C -2.69083  -2.50409  -1.72577  
H -2.73992  -2.71894  0.44650   
C -3.65354  -3.65722  -2.11896  
H -1.66566  -2.88483  -1.80277  
H -2.78676  -1.67757  -2.44172  
C -5.08103  -3.19849  -2.47915  
H -5.63605  -2.85672  -1.59911  
H -5.64990  -4.02827  -2.91462  
H -5.06392  -2.38187  -3.21027  
C -3.66781  -4.79869  -1.08246  
H -3.21862  -4.06868  -3.04249  
H -4.18708  -4.51125  -0.15875  
H -2.65102  -5.10573  -0.81323  
H -4.19425  -5.67328  -1.47956  
C -3.09753  3.76900   -1.09044  
C -2.99298  3.36884   0.38465   
C -4.35086  3.24608   1.04372   
H -2.44811  4.14890   0.92937   
H -2.47704  2.41527   0.46230   
O -5.10134  2.18362   0.64266   
H -4.66890  1.53960   0.00118   
O -4.13707  3.95373   -1.69450  
O -4.73336  4.06005   1.88128   
C 4.34792   3.92114   0.54003   
C 3.15986   4.58500   -0.12189  
H 4.09539   3.04671   1.14368   
H 4.84683   4.64515   1.17508   
H 5.04351   3.59898   -0.24629  
N 2.30437   3.72664   -0.75549  
C 1.19612   4.22667   -1.54888  
H 2.45052   2.72714   -0.67097  
C -0.12579  3.81448   -0.93150  
H 1.25570   3.85829   -2.58307  
H 1.26994   5.31671   -1.56576  
S -1.46380  4.54752   -2.05104  
H -0.20199  4.16996   0.10597   
H -0.21992  2.72506   -0.94717  
O 3.03953   5.83014   -0.18825  
88
image # 3 Energy = -2678.88122
N 9.10277   -0.48710  -0.47252  
C 7.78895   0.00221   -0.84357  
H 9.88638   0.03689   -0.83564  
H 9.19261   -1.49153  -0.56074  
C 6.73933   -1.01100  -0.40916  
H 7.64068   0.15785   -1.93324  
H 7.59669   0.96802   -0.36015  
N 5.52350   -0.52197  -0.06548  
C 4.39099   -1.37952  0.25956   
H 5.33014   0.47239   -0.06330  
C 3.13630   -0.50745  0.20248   
N 1.95434   -1.13014  0.41901   
C 0.67056   -0.42471  0.39171   
H 1.89044   -2.13887  0.55809   
C -0.41636  -1.49748  0.26462   
N -1.64400  -1.04535  -0.06342  
C -2.78490  -1.94091  -0.30281  
H -1.81443  -0.05761  -0.21076  
C -4.01185  -1.09813  -0.00504  
N -5.02669  -1.64344  0.68340   
C -6.26909  -0.94159  0.97701   
H -4.99232  -2.60208  1.01639   
C -7.14214  -1.84321  1.83075   
H -6.80497  -0.67750  0.05400   
H -6.05090  -0.01400  1.51651   
O -8.30513  -1.29309  2.29404   
H -8.43480  -0.34875  2.06426   
O 6.99293   -2.24646  -0.41704  
O 3.21300   0.72897   -0.03417  
O -0.14549  -2.71003  0.45901   
O -4.02885  0.08099   -0.46668  
O -6.83574  -3.00279  2.09528   
C 4.55094   -2.10643  1.65452   
H 4.30813   -2.15084  -0.51613  
C 4.48633   -3.59220  1.54398   
H 3.77614   -1.76525  2.34848   
H 5.51245   -1.78702  2.07328   
C 3.61707   -4.54267  2.04797   
N 4.00056   -5.81766  1.63396   
H 2.75568   -4.39603  2.68003   
C 5.08817   -5.63613  0.88377   
N 5.42304   -4.30577  0.80100   
H 5.64869   -6.41465  0.39452   
H 6.17871   -3.85747  0.28526   
C 0.49848   0.43351   1.69488   
H 0.64510   0.25143   -0.46879  
O -0.78912  1.24010   1.63545   
H 1.36564   1.09795   1.74913   
H 0.48634   -0.24483  2.55205   
H -1.04062  2.55093   2.97692   
C -2.73244  -2.46628  -1.76929  
H -2.71891  -2.77880  0.39340   
C -3.70300  -3.60209  -2.19008  
H -1.70837  -2.83913  -1.88875  
H -2.84629  -1.60905  -2.44602  
C -5.14030  -3.13362  -2.49362  
H -5.67330  -2.83628  -1.58434  
H -5.71852  -3.94445  -2.95197  
H -5.14339  -2.28419  -3.18630  
C -3.69025  -4.78967  -1.20730  
H -3.29105  -3.96971  -3.14219  
H -4.18416  -4.54664  -0.25735  
H -2.66632  -5.10627  -0.97952  
H -4.22747  -5.64576  -1.62941  
C -3.03761  3.67912   -1.11257  
C -2.97211  3.32860   0.37905   
C -4.34919  3.23162   0.99167   
H -2.47167  4.14238   0.90986   
H -2.49294  2.36243   0.52416   
O -5.08911  2.17638   0.58542   
H -4.63952  1.49270   0.00188   
O -4.02716  3.94720   -1.71436  
O -4.74228  4.12078   1.74781   
C 4.31736   3.91133   0.42707   
C 3.16165   4.63328   -0.21583  
H 4.07028   3.09495   1.10653   
H 4.90103   4.62896   0.99382   
H 4.94016   3.50217   -0.37593  
N 2.26891   3.81842   -0.84879  
C 1.19280   4.37702   -1.64144  
H 2.34587   2.81447   -0.74099  
C -0.12599  4.08473   -0.96193  
H 1.19003   3.97008   -2.65998  
H 1.33963   5.45701   -1.69336  
S -1.42361  4.91430   -2.04587  
H -0.13523  4.46147   0.06704   
H -0.27474  3.00461   -0.96609  
O 3.12914   5.88063   -0.33660  
88
image # 4 Energy = -2678.76308
N 9.10781   -0.50973  -0.37779  
C 7.79598   -0.03157  -0.76818  
H 9.89307   0.02147   -0.72656  
H 9.20651   -1.51321  -0.46307  
C 6.74574   -1.04919  -0.34545  
H 7.66245   0.11967   -1.86033  
H 7.59270   0.93380   -0.28890  
N 5.52499   -0.56655  -0.01119  
C 4.38754   -1.42303  0.30090   
H 5.33067   0.42724   -0.00257  
C 3.13407   -0.54862  0.23066   
N 1.94292   -1.16650  0.41782   
C 0.65830   -0.45308  0.37837   
H 1.87709   -2.17854  0.53753   
C -0.42185  -1.53029  0.23152   
N -1.65328  -1.07576  -0.07649  
C -2.78994  -1.97469  -0.32039  
H -1.82964  -0.08394  -0.18501  
C -4.01673  -1.17162  0.05609   
N -5.00546  -1.75036  0.75378   
C -6.24636  -1.07515  1.10345   
H -4.94467  -2.71750  1.05468   
C -7.09326  -2.01912  1.93768   
H -6.80776  -0.77839  0.20601   
H -6.02296  -0.17286  1.68187   
O -8.25594  -1.50029  2.43804   
H -8.40597  -0.55212  2.23826   
O 7.00479   -2.28328  -0.35486  
O 3.21629   0.68942   0.01274   
O -0.14772  -2.74614  0.39679   
O -4.07025  0.01387   -0.37600  
O -6.76476  -3.18203  2.15355   
C 4.53227   -2.14692  1.69902   
H 4.31310   -2.19428  -0.47574  
C 4.48394   -3.63288  1.58788   
H 3.74220   -1.81348  2.37947   
H 5.48332   -1.81748  2.13401   
C 3.62025   -4.59066  2.08713   
N 4.01870   -5.86241  1.67736   
H 2.75362   -4.45036  2.71340   
C 5.10965   -5.67169  0.93430   
N 5.43279   -4.33843  0.85294   
H 5.68076   -6.44476  0.44869   
H 6.18894   -3.88425  0.34288   
C 0.46475   0.40604   1.68997   
H 0.64705   0.22318   -0.48253  
O -0.84872  1.22406   1.69398   
H 1.34624   1.05301   1.74193   
H 0.45078   -0.28500  2.53736   
H -0.72368  3.44172   2.96478   
C -2.77593  -2.42844  -1.81109  
H -2.69713  -2.84245  0.33511   
C -3.75608  -3.54453  -2.25947  
H -1.75393  -2.79089  -1.97420  
H -2.90799  -1.54090  -2.44439  
C -5.20217  -3.06742  -2.50230  
H -5.71116  -2.81677  -1.56547  
H -5.79091  -3.85741  -2.98334  
H -5.22536  -2.18615  -3.15354  
C -3.71619  -4.77729  -1.33501  
H -3.36899  -3.86522  -3.23867  
H -4.18348  -4.58130  -0.36088  
H -2.68597  -5.10209  -1.15106  
H -4.26516  -5.61303  -1.78217  
C -2.92249  3.55889   -1.11006  
C -2.94464  3.26830   0.39058   
C -4.35137  3.20991   0.92781   
H -2.50291  4.12536   0.90140   
H -2.51472  2.30098   0.63031   
O -5.08014  2.16637   0.49795   
H -4.60325  1.43656   -0.00291  
O -3.84384  3.94034   -1.72403  
O -4.76609  4.18169   1.56037   
C 4.28307   3.89556   0.29402   
C 3.16568   4.67835   -0.33227  
H 4.05846   3.16567   1.06960   
H 4.97598   4.59605   0.74525   
H 4.79808   3.36795   -0.51481  
N 2.22261   3.91030   -0.94647  
C 1.17463   4.52785   -1.72881  
H 2.22246   2.90785   -0.80488  
C -0.12391  4.37817   -0.97978  
H 1.09402   4.08260   -2.72800  
H 1.40492   5.58952   -1.83116  
S -1.40092  5.29408   -1.99844  
H -0.06434  4.77763   0.03804   
H -0.33355  3.30931   -0.94609  
O 3.22952   5.91725   -0.51754  
88
image # 5 Energy = -2678.90585
N 9.07161   -0.54567  0.13177   
C 7.77345   -0.11687  -0.35349  
H 9.85806   0.02367   -0.14792  
H 9.22150   -1.54288  0.04237   
C 6.73376   -1.16812  0.00669   
H 7.71105   0.01558   -1.45405  
H 7.50351   0.84608   0.09715   
N 5.49033   -0.72095  0.30116   
C 4.35315   -1.60136  0.54516   
H 5.27840   0.26987   0.35603   
C 3.09925   -0.73402  0.44632   
N 1.90002   -1.36239  0.44751   
C 0.62695   -0.64287  0.35670   
H 1.82601   -2.38005  0.43575   
C -0.44491  -1.70397  0.06273   
N -1.69014  -1.22124  -0.14593  
C -2.84174  -2.08264  -0.44155  
H -1.86636  -0.22859  -0.05341  
C -4.01457  -1.47978  0.30646   
N -4.84608  -2.24497  1.02430   
C -6.01176  -1.68153  1.69133   
H -4.70006  -3.24344  1.12151   
C -6.73887  -2.81675  2.38453   
H -6.68145  -1.19145  0.97026   
H -5.71541  -0.91533  2.42090   
O -7.86387  -2.47078  3.08118   
H -8.07571  -1.51400  3.07412   
O 7.02862   -2.39467  -0.02229  
O 3.19007   0.51982   0.42899   
O -0.15189  -2.92603  0.03969   
O -4.22033  -0.23971  0.33488   
O -6.35549  -3.98147  2.32561   
C 4.42906   -2.33820  1.94257   
H 4.32310   -2.36262  -0.24503  
C 4.47076   -3.82302  1.81902   
H 3.56661   -2.06434  2.55964   
H 5.31799   -1.95536  2.45889   
C 3.64468   -4.82735  2.28890   
N 4.12651   -6.07471  1.89549   
H 2.74987   -4.73639  2.88386   
C 5.23082   -5.82149  1.19088   
N 5.48233   -4.47305  1.11825   
H 5.86134   -6.56172  0.72800   
H 6.23185   -3.97604  0.63610   
C 0.34193   0.15929   1.66083   
H 0.67096   0.08130   -0.46455  
O -0.97501  0.89304   1.53639   
H 1.18294   0.83098   1.82496   
H 0.26225   -0.53729  2.51158   
H -0.59590  8.41887   -0.74834  
C -3.03130  -2.16392  -1.98290  
H -2.63826  -3.07988  -0.03863  
C -4.08282  -3.15275  -2.54793  
H -2.04391  -2.45514  -2.36392  
H -3.22972  -1.15207  -2.35847  
C -5.53983  -2.65823  -2.44936  
H -5.90296  -2.65303  -1.41541  
H -6.20568  -3.31751  -3.01834  
H -5.64320  -1.64624  -2.85674  
C -3.92981  -4.57362  -1.97148  
H -3.84696  -3.21257  -3.62128  
H -4.24594  -4.63154  -0.92129  
H -2.89008  -4.91594  -2.02924  
H -4.55435  -5.28283  -2.52545  
C -1.28792  2.64825   0.98802   
C -2.75461  2.87298   0.93656   
C -3.35576  2.94565   -0.44715  
H -2.88428  3.87535   1.35042   
H -3.12689  2.06105   1.54017   
O -3.90824  1.84133   -0.97263  
H -4.05853  1.09685   -0.30963  
O -0.62057  3.47309   1.52434   
O -3.46142  4.01640   -1.03947  
C 3.80620   3.63065   -0.59187  
C 2.94791   4.68598   -1.22532  
H 4.53367   3.95259   0.15262   
H 4.34740   3.16463   -1.41664  
H 3.23889   2.88574   -0.04513  
N 1.62089   4.36791   -1.31880  
C 0.67108   5.24144   -1.98287  
H 1.27153   3.53886   -0.86680  
C -0.24543  5.87293   -0.95615  
H 0.10436   4.69497   -2.74704  
H 1.25297   6.01719   -2.48487  
S -1.48470  6.97322   -1.88909  
H 0.29995   6.30124   -0.11241  
H -0.90634  5.12654   -0.52246  
O 3.43922   5.64758   -1.85602  
88
image # 6 Energy = -2678.98756
N 9.05726   -0.54425  0.22370   
C 7.76358   -0.12356  -0.28055  
H 9.84399   0.03133   -0.04199  
H 9.21665   -1.54018  0.13400   
C 6.72689   -1.18124  0.06940   
H 7.71439   0.00544   -1.38227  
H 7.48078   0.83985   0.16161   
N 5.48011   -0.73988  0.35762   
C 4.34275   -1.62236  0.59031   
H 5.26312   0.25066   0.40797   
C 3.09224   -0.75111  0.48453   
N 1.89511   -1.38322  0.45819   
C 0.62628   -0.66462  0.35188   
H 1.81922   -2.40001  0.42468   
C -0.44588  -1.72260  0.03838   
N -1.69216  -1.23790  -0.15586  
C -2.85278  -2.08260  -0.46526  
H -1.86439  -0.24816  -0.03810  
C -4.01025  -1.50078  0.32971   
N -4.80434  -2.30245  1.05337   
C -5.95208  -1.77949  1.77924   
H -4.64556  -3.30294  1.11213   
C -6.65162  -2.94922  2.44512   
H -6.64486  -1.26342  1.09932   
H -5.63816  -1.04228  2.53150   
O -7.76552  -2.64449  3.17864   
H -7.99035  -1.69133  3.20950   
O 7.02798   -2.40630  0.03790   
O 3.18231   0.50358   0.48554   
O -0.15134  -2.94252  -0.01482  
O -4.23696  -0.26080  0.38285   
O -6.25912  -4.10713  2.33466   
C 4.40656   -2.36442  1.98617   
H 4.32003   -2.38287  -0.20080  
C 4.46523   -3.84895  1.86068   
H 3.53195   -2.10159  2.59106   
H 5.28350   -1.97293  2.51678   
C 3.64670   -4.86199  2.32578   
N 4.14423   -6.10464  1.93708   
H 2.74706   -4.78046  2.91471   
C 5.25046   -5.84024  1.23961   
N 5.48800   -4.48930  1.16681   
H 5.89185   -6.57460  0.78218   
H 6.23563   -3.98449  0.68928   
C 0.33112   0.13552   1.65138   
H 0.68214   0.06054   -0.46909  
O -0.97778  0.86814   1.51512   
H 1.16177   0.81974   1.82211   
H 0.23229   -0.55009  2.50576   
H -0.40157  8.56164   -1.40694  
C -3.07452  -2.10381  -2.00404  
H -2.63783  -3.09463  -0.10772  
C -4.14275  -3.06675  -2.58322  
H -2.09705  -2.38165  -2.41879  
H -3.27918  -1.07790  -2.33528  
C -5.59582  -2.57510  -2.42522  
H -5.93201  -2.61290  -1.38278  
H -6.27776  -3.20890  -3.00407  
H -5.70802  -1.54657  -2.78595  
C -3.97609  -4.51121  -2.07238  
H -3.93562  -3.08092  -3.66387  
H -4.26384  -4.61356  -1.01776  
H -2.93890  -4.85131  -2.17245  
H -4.61560  -5.19598  -2.63973  
C -1.16768  2.49564   1.02958   
C -2.62897  2.82514   0.93141   
C -3.13406  2.86941   -0.49697  
H -2.72460  3.83919   1.32921   
H -3.11008  2.06962   1.54223   
O -3.70371  1.76640   -1.01469  
H -3.95016  1.05910   -0.34314  
O -0.39196  3.30680   1.39925   
O -3.07844  3.89104   -1.17933  
C 3.66738   3.55505   -0.71810  
C 2.85775   4.65010   -1.36012  
H 4.47175   3.90470   -0.06888  
H 4.11332   2.98959   -1.53975  
H 3.08954   2.89485   -0.07824  
N 1.50430   4.45953   -1.32762  
C 0.57131   5.37321   -1.96631  
H 1.12841   3.67756   -0.81463  
C -0.26180  6.08581   -0.91435  
H -0.06208  4.84114   -2.68637  
H 1.18239   6.08523   -2.52699  
S -1.53712  7.21606   -1.76998  
H 0.34873   6.54354   -0.13156  
H -0.93048  5.39984   -0.39646  
O 3.38034   5.54768   -2.05393  
88
image # 7 Energy = -2679.06637
N 9.03993   -0.54357  0.33141   
C 7.75165   -0.13169  -0.19531  
H 9.82638   0.03969   0.08294   
H 9.21049   -1.53743  0.24220   
C 6.71820   -1.19736  0.14228   
H 7.71845   -0.00696  -1.29838  
H 7.45376   0.83141   0.23628   
N 5.46832   -0.76198  0.42206   
C 4.33038   -1.64913  0.64056   
H 5.24452   0.22727   0.46260   
C 3.08231   -0.77268  0.52524   
N 1.88900   -1.40974  0.46941   
C 0.62660   -0.68965  0.34267   
H 1.81069   -2.42189  0.41064   
C -0.44674  -1.74213  0.01063   
N -1.69701  -1.25448  -0.16845  
C -2.86394  -2.08091  -0.49213  
H -1.86044  -0.26676  -0.02276  
C -4.00573  -1.52400  0.35611   
N -4.75261  -2.36970  1.08099   
C -5.87900  -1.89609  1.87429   
H -4.58220  -3.36642  1.09636   
C -6.54553  -3.10453  2.50786   
H -6.59772  -1.35313  1.24342   
H -5.54389  -1.19341  2.64970   
O -7.64336  -2.85018  3.28554   
H -7.88440  -1.90299  3.35863   
O 7.02750   -2.42090  0.10855   
O 3.17301   0.48398   0.53534   
O -0.15238  -2.95999  -0.07639  
O -4.24988  -0.28083  0.42505   
O -6.14305  -4.25182  2.33907   
C 4.37953   -2.39479  2.03636   
H 4.31658   -2.40743  -0.14912  
C 4.45863   -3.87923  1.90969   
H 3.49075   -2.14468  2.62543   
H 5.24168   -1.99291  2.58312   
C 3.64919   -4.90232  2.36930   
N 4.16490   -6.13917  1.98679   
H 2.74365   -4.83140  2.95108   
C 5.27340   -5.86241  1.29786   
N 5.49440   -4.50838  1.22472   
H 5.92717   -6.58943  0.84711   
H 6.24006   -3.99447  0.75253   
C 0.31984   0.11715   1.63159   
H 0.69658   0.03347   -0.48305  
O -0.97947  0.85493   1.48309   
H 1.14217   0.81411   1.80763   
H 0.19541   -0.55390  2.49205   
H -0.32255  8.58944   -1.93161  
C -3.12551  -2.02999  -2.02500  
H -2.63851  -3.10504  -0.18880  
C -4.21234  -2.96349  -2.61899  
H -2.16031  -2.29226  -2.47793  
H -3.33491  -0.98978  -2.30351  
C -5.65888  -2.47716  -2.39221  
H -5.96364  -2.56544  -1.34298  
H -6.35960  -3.08110  -2.98102  
H -5.77914  -1.43206  -2.69766  
C -4.03203  -4.43227  -2.18545  
H -4.03890  -2.92471  -3.70461  
H -4.28681  -4.58592  -1.12886  
H -2.99943  -4.76804  -2.33428  
H -4.68915  -5.08803  -2.76675  
C -1.04909  2.31856   1.07510   
C -2.48418  2.77034   0.91384   
C -2.89682  2.79086   -0.55761  
H -2.54099  3.80287   1.29287   
H -3.07954  2.08886   1.51698   
O -3.49271  1.68939   -1.04525  
H -3.82564  1.01918   -0.38454  
O -0.11936  3.10263   1.19718   
O -2.67361  3.75748   -1.28053  
C 3.50586   3.47951   -0.84895  
C 2.73739   4.60549   -1.50392  
H 4.36932   3.84245   -0.29212  
H 3.87363   2.83374   -1.65534  
H 2.91982   2.88542   -0.15112  
N 1.37947   4.55767   -1.33705  
C 0.47717   5.51924   -1.96141  
H 0.98380   3.84080   -0.75357  
C -0.28075  6.30686   -0.89174  
H -0.22703  5.00899   -2.62925  
H 1.10791   6.16732   -2.57068  
S -1.48899  7.55896   -1.66710  
H 0.40378   6.77633   -0.17058  
H -0.95887  5.68060   -0.32999  
O 3.29105   5.44736   -2.24800  
88
image # 8 Energy = -2679.09976
N 9.02132   -0.54345  0.44107   
C 7.74009   -0.14180  -0.10917  
H 9.80760   0.04738   0.21101   
H 9.20422   -1.53571  0.35327   
C 6.71047   -1.21493  0.21600   
H 7.72306   -0.02028  -1.21294  
H 7.42614   0.82206   0.31165   
N 5.45598   -0.78662  0.48563   
C 4.31831   -1.67550  0.69280   
H 5.22573   0.20271   0.51260   
C 3.07396   -0.79550  0.55905   
N 1.88153   -1.43509  0.48230   
C 0.62588   -0.71113  0.32687   
H 1.80202   -2.44689  0.39533   
C -0.45089  -1.76249  -0.01813  
N -1.69918  -1.26673  -0.17745  
C -2.87775  -2.07322  -0.51822  
H -1.85544  -0.28245  -0.01083  
C -3.99642  -1.54497  0.38036   
N -4.70203  -2.43180  1.10555   
C -5.80274  -2.01717  1.96119   
H -4.51820  -3.42999  1.07598   
C -6.43555  -3.26273  2.56359   
H -6.54408  -1.45034  1.38198   
H -5.44473  -1.35006  2.75725   
O -7.51238  -3.06003  3.38552   
H -7.77111  -2.12202  3.49910   
O 7.02721   -2.43653  0.18080   
O 3.16339   0.46070   0.56868   
O -0.15525  -2.97669  -0.13427  
O -4.25494  -0.30385  0.46242   
O -6.02282  -4.39613  2.33710   
C 4.35161   -2.42672  2.08625   
H 4.31361   -2.43519  -0.09849  
C 4.45225   -3.91013  1.96025   
H 3.44846   -2.18760  2.65782   
H 5.19784   -2.01243  2.64913   
C 3.65144   -4.94276  2.41456   
N 4.18574   -6.17432  2.03902   
H 2.74057   -4.88251  2.98869   
C 5.29652   -5.88437  1.35880   
N 5.50133   -4.52802  1.28467   
H 5.96293   -6.60466  0.91492   
H 6.24455   -4.00507  0.81842   
C 0.31682   0.11102   1.60019   
H 0.71509   -0.00352  -0.51031  
O -0.95310  0.85359   1.42602   
H 1.12606   0.82049   1.77554   
H 0.15260   -0.53446  2.46272   
H -0.30735  8.61683   -2.20790  
C -3.17676  -1.95180  -2.04086  
H -2.63946  -3.11106  -0.26984  
C -4.28304  -2.85613  -2.64815  
H -2.22629  -2.19775  -2.53148  
H -3.38880  -0.89864  -2.26427  
C -5.71989  -2.37771  -2.35308  
H -5.99289  -2.51664  -1.30049  
H -6.43922  -2.95029  -2.95001  
H -5.84564  -1.31790  -2.60166  
C -4.09094  -4.34530  -2.29418  
H -4.14267  -2.76395  -3.73576  
H -4.31250  -4.55076  -1.23886  
H -3.06412  -4.67577  -2.49146  
H -4.76564  -4.97168  -2.88771  
C -0.92308  2.19643   1.09137   
C -2.32755  2.72090   0.89752   
C -2.66433  2.72262   -0.60776  
H -2.35966  3.75509   1.24253   
H -3.03455  2.11433   1.46673   
O -3.30234  1.62094   -1.08212  
H -3.70438  0.97454   -0.42164  
O 0.11875   2.83229   0.93060   
O -2.32208  3.64434   -1.34410  
C 3.33820   3.41339   -0.96825  
C 2.59840   4.56266   -1.62618  
H 4.24884   3.78390   -0.48698  
H 3.65661   2.71152   -1.74853  
H 2.74335   2.86288   -0.23730  
N 1.26031   4.64536   -1.34027  
C 0.39100   5.64606   -1.96027  
H 0.85311   3.99980   -0.67492  
C -0.28716  6.51364   -0.89810  
H -0.37382  5.16079   -2.57741  
H 1.03279   6.24651   -2.61071  
S -1.35020  7.90523   -1.65426  
H 0.44318   6.96128   -0.22084  
H -1.00659  5.92673   -0.32230  
O 3.17749   5.35946   -2.40307  
